 Default is to use a total of   8 processors:
                                8 via shared-memory
                                1 via Linda
 Entering Link 1 = D:\study\G16W\l1.exe PID=     45088.
  
 Copyright (c) 1988-2017, Gaussian, Inc.  All Rights Reserved.
  
 This is part of the Gaussian(R) 16 program.  It is based on
 the Gaussian(R) 09 system (copyright 2009, Gaussian, Inc.),
 the Gaussian(R) 03 system (copyright 2003, Gaussian, Inc.),
 the Gaussian(R) 98 system (copyright 1998, Gaussian, Inc.),
 the Gaussian(R) 94 system (copyright 1995, Gaussian, Inc.),
 the Gaussian 92(TM) system (copyright 1992, Gaussian, Inc.),
 the Gaussian 90(TM) system (copyright 1990, Gaussian, Inc.),
 the Gaussian 88(TM) system (copyright 1988, Gaussian, Inc.),
 the Gaussian 86(TM) system (copyright 1986, Carnegie Mellon
 University), and the Gaussian 82(TM) system (copyright 1983,
 Carnegie Mellon University). Gaussian is a federally registered
 trademark of Gaussian, Inc.
  
 This software contains proprietary and confidential information,
 including trade secrets, belonging to Gaussian, Inc.
  
 This software is provided under written license and may be
 used, copied, transmitted, or stored only in accord with that
 written license.
  
 The following legend is applicable only to US Government
 contracts under FAR:
  
                    RESTRICTED RIGHTS LEGEND
  
 Use, reproduction and disclosure by the US Government is
 subject to restrictions as set forth in subparagraphs (a)
 and (c) of the Commercial Computer Software - Restricted
 Rights clause in FAR 52.227-19.
  
 Gaussian, Inc.
 340 Quinnipiac St., Bldg. 40, Wallingford CT 06492
  
  
 ---------------------------------------------------------------
 Warning -- This program may not be used in any manner that
 competes with the business of Gaussian, Inc. or will provide
 assistance to any competitor of Gaussian, Inc.  The licensee
 of this program is prohibited from giving any competitor of
 Gaussian, Inc. access to this program.  By using this program,
 the user acknowledges that Gaussian, Inc. is engaged in the
 business of creating and licensing software in the field of
 computational chemistry and represents and warrants to the
 licensee that it is not a competitor of Gaussian, Inc. and that
 it will not use this program in any manner prohibited above.
 ---------------------------------------------------------------
  

 Cite this work as:
 Gaussian 16, Revision B.01,
 M. J. Frisch, G. W. Trucks, H. B. Schlegel, G. E. Scuseria, 
 M. A. Robb, J. R. Cheeseman, G. Scalmani, V. Barone, 
 G. A. Petersson, H. Nakatsuji, X. Li, M. Caricato, A. V. Marenich, 
 J. Bloino, B. G. Janesko, R. Gomperts, B. Mennucci, H. P. Hratchian, 
 J. V. Ortiz, A. F. Izmaylov, J. L. Sonnenberg, D. Williams-Young, 
 F. Ding, F. Lipparini, F. Egidi, J. Goings, B. Peng, A. Petrone, 
 T. Henderson, D. Ranasinghe, V. G. Zakrzewski, J. Gao, N. Rega, 
 G. Zheng, W. Liang, M. Hada, M. Ehara, K. Toyota, R. Fukuda, 
 J. Hasegawa, M. Ishida, T. Nakajima, Y. Honda, O. Kitao, H. Nakai, 
 T. Vreven, K. Throssell, J. A. Montgomery, Jr., J. E. Peralta, 
 F. Ogliaro, M. J. Bearpark, J. J. Heyd, E. N. Brothers, K. N. Kudin, 
 V. N. Staroverov, T. A. Keith, R. Kobayashi, J. Normand, 
 K. Raghavachari, A. P. Rendell, J. C. Burant, S. S. Iyengar, 
 J. Tomasi, M. Cossi, J. M. Millam, M. Klene, C. Adamo, R. Cammi, 
 J. W. Ochterski, R. L. Martin, K. Morokuma, O. Farkas, 
 J. B. Foresman, and D. J. Fox, Gaussian, Inc., Wallingford CT, 2016.
 
 ******************************************
 Gaussian 16:  EM64W-G16RevB.01 16-Dec-2017
                13-Jul-2024 
 ******************************************
 --------------------------------------
 #p b3lyp/6-31+G* NMR geom=connectivity
 --------------------------------------
 1/38=1,57=2,172=1/1;
 2/12=2,17=6,18=5,40=1/2;
 3/5=1,6=6,7=11,11=2,25=1,30=1,74=-5/1,2,3,8;
 4//1;
 5/5=2,38=5/2;
 8/6=1,10=90,11=11/1;
 10/13=100,45=16/2;
 6/7=2,8=2,9=2,10=2,28=1/1;
 99/9=1/99;
 Leave Link    1 at Sat Jul 13 01:00:21 2024, MaxMem=           0 cpu:               0.0 elap:               0.2
 (Enter D:\study\G16W\l101.exe)
 -------------
 template file
 -------------
 Symbolic Z-matrix:
 Charge =  0 Multiplicity = 1
 C                     0.        1.397     0. 
 C                     1.209     0.698     0. 
 C                     1.209    -0.698     0. 
 C                     0.       -1.397     0. 
 C                    -1.209    -0.698     0. 
 C                    -1.209     0.698     0. 
 H                     0.        2.483     0. 
 H                     2.151     1.242     0. 
 H                     2.151    -1.242     0. 
 H                     0.       -2.483     0. 
 H                    -2.151    -1.242     0. 
 H                    -2.151     1.242     0. 
 Bq                    0.        0.        0. 
 Bq                    0.        0.        0.05025 
 Bq                    0.        0.        0.1005 
 Bq                    0.        0.        0.15075 
 Bq                    0.        0.        0.20101 
 Bq                    0.        0.        0.25126 
 Bq                    0.        0.        0.30151 
 Bq                    0.        0.        0.35176 
 Bq                    0.        0.        0.40201 
 Bq                    0.        0.        0.45226 
 Bq                    0.        0.        0.50251 
 Bq                    0.        0.        0.55276 
 Bq                    0.        0.        0.60302 
 Bq                    0.        0.        0.65327 
 Bq                    0.        0.        0.70352 
 Bq                    0.        0.        0.75377 
 Bq                    0.        0.        0.80402 
 Bq                    0.        0.        0.85427 
 Bq                    0.        0.        0.90452 
 Bq                    0.        0.        0.95477 
 Bq                    0.        0.        1.00503 
 Bq                    0.        0.        1.05528 
 Bq                    0.        0.        1.10553 
 Bq                    0.        0.        1.15578 
 Bq                    0.        0.        1.20603 
 Bq                    0.        0.        1.25628 
 Bq                    0.        0.        1.30653 
 Bq                    0.        0.        1.35678 
 Bq                    0.        0.        1.40704 
 Bq                    0.        0.        1.45729 
 Bq                    0.        0.        1.50754 
 Bq                    0.        0.        1.55779 
 Bq                    0.        0.        1.60804 
 Bq                    0.        0.        1.65829 
 Bq                    0.        0.        1.70854 
 Bq                    0.        0.        1.75879 
 Bq                    0.        0.        1.80905 
 Bq                    0.        0.        1.8593 
 Bq                    0.        0.        1.90955 
 Bq                    0.        0.        1.9598 
 Bq                    0.        0.        2.01005 
 Bq                    0.        0.        2.0603 
 Bq                    0.        0.        2.11055 
 Bq                    0.        0.        2.1608 
 Bq                    0.        0.        2.21106 
 Bq                    0.        0.        2.26131 
 Bq                    0.        0.        2.31156 
 Bq                    0.        0.        2.36181 
 Bq                    0.        0.        2.41206 
 Bq                    0.        0.        2.46231 
 Bq                    0.        0.        2.51256 
 Bq                    0.        0.        2.56281 
 Bq                    0.        0.        2.61307 
 Bq                    0.        0.        2.66332 
 Bq                    0.        0.        2.71357 
 Bq                    0.        0.        2.76382 
 Bq                    0.        0.        2.81407 
 Bq                    0.        0.        2.86432 
 Bq                    0.        0.        2.91457 
 Bq                    0.        0.        2.96482 
 Bq                    0.        0.        3.01507 
 Bq                    0.        0.        3.06533 
 Bq                    0.        0.        3.11558 
 Bq                    0.        0.        3.16583 
 Bq                    0.        0.        3.21608 
 Bq                    0.        0.        3.26633 
 Bq                    0.        0.        3.31658 
 Bq                    0.        0.        3.36683 
 Bq                    0.        0.        3.41709 
 Bq                    0.        0.        3.46734 
 Bq                    0.        0.        3.51759 
 Bq                    0.        0.        3.56784 
 Bq                    0.        0.        3.61809 
 Bq                    0.        0.        3.66834 
 Bq                    0.        0.        3.71859 
 Bq                    0.        0.        3.76884 
 Bq                    0.        0.        3.8191 
 Bq                    0.        0.        3.86935 
 Bq                    0.        0.        3.9196 
 Bq                    0.        0.        3.96985 
 Bq                    0.        0.        4.0201 
 Bq                    0.        0.        4.07035 
 Bq                    0.        0.        4.1206 
 Bq                    0.        0.        4.17085 
 Bq                    0.        0.        4.22111 
 Bq                    0.        0.        4.27136 
 Bq                    0.        0.        4.32161 
 Bq                    0.        0.        4.37186 
 Bq                    0.        0.        4.42211 
 Bq                    0.        0.        4.47236 
 Bq                    0.        0.        4.52261 
 Bq                    0.        0.        4.57286 
 Bq                    0.        0.        4.62312 
 Bq                    0.        0.        4.67337 
 Bq                    0.        0.        4.72362 
 Bq                    0.        0.        4.77387 
 Bq                    0.        0.        4.82412 
 Bq                    0.        0.        4.87437 
 Bq                    0.        0.        4.92462 
 Bq                    0.        0.        4.97487 
 Bq                    0.        0.        5.02513 
 Bq                    0.        0.        5.07538 
 Bq                    0.        0.        5.12563 
 Bq                    0.        0.        5.17588 
 Bq                    0.        0.        5.22613 
 Bq                    0.        0.        5.27638 
 Bq                    0.        0.        5.32663 
 Bq                    0.        0.        5.37688 
 Bq                    0.        0.        5.42714 
 Bq                    0.        0.        5.47739 
 Bq                    0.        0.        5.52764 
 Bq                    0.        0.        5.57789 
 Bq                    0.        0.        5.62814 
 Bq                    0.        0.        5.67839 
 Bq                    0.        0.        5.72864 
 Bq                    0.        0.        5.77889 
 Bq                    0.        0.        5.82915 
 Bq                    0.        0.        5.8794 
 Bq                    0.        0.        5.92965 
 Bq                    0.        0.        5.9799 
 Bq                    0.        0.        6.03015 
 Bq                    0.        0.        6.0804 
 Bq                    0.        0.        6.13065 
 Bq                    0.        0.        6.18091 
 Bq                    0.        0.        6.23116 
 Bq                    0.        0.        6.28141 
 Bq                    0.        0.        6.33166 
 Bq                    0.        0.        6.38191 
 Bq                    0.        0.        6.43216 
 Bq                    0.        0.        6.48241 
 Bq                    0.        0.        6.53266 
 Bq                    0.        0.        6.58291 
 Bq                    0.        0.        6.63317 
 Bq                    0.        0.        6.68342 
 Bq                    0.        0.        6.73367 
 Bq                    0.        0.        6.78392 
 Bq                    0.        0.        6.83417 
 Bq                    0.        0.        6.88442 
 Bq                    0.        0.        6.93467 
 Bq                    0.        0.        6.98493 
 Bq                    0.        0.        7.03518 
 Bq                    0.        0.        7.08543 
 Bq                    0.        0.        7.13568 
 Bq                    0.        0.        7.18593 
 Bq                    0.        0.        7.23618 
 Bq                    0.        0.        7.28643 
 Bq                    0.        0.        7.33668 
 Bq                    0.        0.        7.38694 
 Bq                    0.        0.        7.43719 
 Bq                    0.        0.        7.48744 
 Bq                    0.        0.        7.53769 
 Bq                    0.        0.        7.58794 
 Bq                    0.        0.        7.63819 
 Bq                    0.        0.        7.68844 
 Bq                    0.        0.        7.73869 
 Bq                    0.        0.        7.78895 
 Bq                    0.        0.        7.8392 
 Bq                    0.        0.        7.88945 
 Bq                    0.        0.        7.9397 
 Bq                    0.        0.        7.98995 
 Bq                    0.        0.        8.0402 
 Bq                    0.        0.        8.09045 
 Bq                    0.        0.        8.1407 
 Bq                    0.        0.        8.19096 
 Bq                    0.        0.        8.24121 
 Bq                    0.        0.        8.29146 
 Bq                    0.        0.        8.34171 
 Bq                    0.        0.        8.39196 
 Bq                    0.        0.        8.44221 
 Bq                    0.        0.        8.49246 
 Bq                    0.        0.        8.54271 
 Bq                    0.        0.        8.59296 
 Bq                    0.        0.        8.64322 
 Bq                    0.        0.        8.69347 
 Bq                    0.        0.        8.74372 
 Bq                    0.        0.        8.79397 
 Bq                    0.        0.        8.84422 
 Bq                    0.        0.        8.89447 
 Bq                    0.        0.        8.94472 
 Bq                    0.        0.        8.99498 
 Bq                    0.        0.        9.04523 
 Bq                    0.        0.        9.09548 
 Bq                    0.        0.        9.14573 
 Bq                    0.        0.        9.19598 
 Bq                    0.        0.        9.24623 
 Bq                    0.        0.        9.29648 
 Bq                    0.        0.        9.34673 
 Bq                    0.        0.        9.39699 
 Bq                    0.        0.        9.44724 
 Bq                    0.        0.        9.49749 
 Bq                    0.        0.        9.54774 
 Bq                    0.        0.        9.59799 
 Bq                    0.        0.        9.64824 
 Bq                    0.        0.        9.69849 
 Bq                    0.        0.        9.74874 
 Bq                    0.        0.        9.79899 
 Bq                    0.        0.        9.84925 
 Bq                    0.        0.        9.8995 
 Bq                    0.        0.        9.94975 
 Bq                    0.        0.        10. 
 
 ITRead=  0  0  0  0  0  0  0  0  0  0  0  0  0  0  0  0  0  0  0  0
 ITRead=  0  0  0  0  0  0  0  0  0  0  0  0  0  0  0  0  0  0  0  0
 ITRead=  0  0  0  0  0  0  0  0  0  0  0  0  0  0  0  0  0  0  0  0
 ITRead=  0  0  0  0  0  0  0  0  0  0  0  0  0  0  0  0  0  0  0  0
 ITRead=  0  0  0  0  0  0  0  0  0  0  0  0  0  0  0  0  0  0  0  0
 ITRead=  0  0  0  0  0  0  0  0  0  0  0  0  0  0  0  0  0  0  0  0
 ITRead=  0  0  0  0  0  0  0  0  0  0  0  0  0  0  0  0  0  0  0  0
 ITRead=  0  0  0  0  0  0  0  0  0  0  0  0  0  0  0  0  0  0  0  0
 ITRead=  0  0  0  0  0  0  0  0  0  0  0  0  0  0  0  0  0  0  0  0
 ITRead=  0  0  0  0  0  0  0  0  0  0  0  0  0  0  0  0  0  0  0  0
 ITRead=  0  0  0  0  0  0  0  0  0  0  0  0
 MicOpt= -1 -1 -1 -1 -1 -1 -1 -1 -1 -1 -1 -1 -1 -1 -1 -1 -1 -1 -1 -1
 MicOpt= -1 -1 -1 -1 -1 -1 -1 -1 -1 -1 -1 -1 -1 -1 -1 -1 -1 -1 -1 -1
 MicOpt= -1 -1 -1 -1 -1 -1 -1 -1 -1 -1 -1 -1 -1 -1 -1 -1 -1 -1 -1 -1
 MicOpt= -1 -1 -1 -1 -1 -1 -1 -1 -1 -1 -1 -1 -1 -1 -1 -1 -1 -1 -1 -1
 MicOpt= -1 -1 -1 -1 -1 -1 -1 -1 -1 -1 -1 -1 -1 -1 -1 -1 -1 -1 -1 -1
 MicOpt= -1 -1 -1 -1 -1 -1 -1 -1 -1 -1 -1 -1 -1 -1 -1 -1 -1 -1 -1 -1
 MicOpt= -1 -1 -1 -1 -1 -1 -1 -1 -1 -1 -1 -1 -1 -1 -1 -1 -1 -1 -1 -1
 MicOpt= -1 -1 -1 -1 -1 -1 -1 -1 -1 -1 -1 -1 -1 -1 -1 -1 -1 -1 -1 -1
 MicOpt= -1 -1 -1 -1 -1 -1 -1 -1 -1 -1 -1 -1 -1 -1 -1 -1 -1 -1 -1 -1
 MicOpt= -1 -1 -1 -1 -1 -1 -1 -1 -1 -1 -1 -1 -1 -1 -1 -1 -1 -1 -1 -1
 MicOpt= -1 -1 -1 -1 -1 -1 -1 -1 -1 -1 -1 -1
 NAtoms=    212 NQM=      212 NQMF=       0 NMMI=      0 NMMIF=      0
                NMic=       0 NMicF=      0.
                    Isotopes and Nuclear Properties:
 (Nuclear quadrupole moments (NQMom) in fm**2, nuclear magnetic moments (NMagM)
  in nuclear magnetons)

  Atom         1           2           3           4           5           6           7           8           9          10
 IAtWgt=          12          12          12          12          12          12           1           1           1           1
 AtmWgt=  12.0000000  12.0000000  12.0000000  12.0000000  12.0000000  12.0000000   1.0078250   1.0078250   1.0078250   1.0078250
 NucSpn=           0           0           0           0           0           0           1           1           1           1
 AtZEff=   0.0000000   0.0000000   0.0000000   0.0000000   0.0000000   0.0000000   0.0000000   0.0000000   0.0000000   0.0000000
 NQMom=    0.0000000   0.0000000   0.0000000   0.0000000   0.0000000   0.0000000   0.0000000   0.0000000   0.0000000   0.0000000
 NMagM=    0.0000000   0.0000000   0.0000000   0.0000000   0.0000000   0.0000000   2.7928460   2.7928460   2.7928460   2.7928460
 AtZNuc=   6.0000000   6.0000000   6.0000000   6.0000000   6.0000000   6.0000000   1.0000000   1.0000000   1.0000000   1.0000000

  Atom        11          12          13          14          15          16          17          18          19          20
 IAtWgt=           1           1           0           0           0           0           0           0           0           0
 AtmWgt=   1.0078250   1.0078250   0.0000000   0.0000000   0.0000000   0.0000000   0.0000000   0.0000000   0.0000000   0.0000000
 NucSpn=           1           1           0           0           0           0           0           0           0           0
 AtZEff=   0.0000000   0.0000000   0.0000000   0.0000000   0.0000000   0.0000000   0.0000000   0.0000000   0.0000000   0.0000000
 NQMom=    0.0000000   0.0000000   0.0000000   0.0000000   0.0000000   0.0000000   0.0000000   0.0000000   0.0000000   0.0000000
 NMagM=    2.7928460   2.7928460   0.0000000   0.0000000   0.0000000   0.0000000   0.0000000   0.0000000   0.0000000   0.0000000
 AtZNuc=   1.0000000   1.0000000   0.0000000   0.0000000   0.0000000   0.0000000   0.0000000   0.0000000   0.0000000   0.0000000

  Atom        21          22          23          24          25          26          27          28          29          30
 IAtWgt=           0           0           0           0           0           0           0           0           0           0
 AtmWgt=   0.0000000   0.0000000   0.0000000   0.0000000   0.0000000   0.0000000   0.0000000   0.0000000   0.0000000   0.0000000
 NucSpn=           0           0           0           0           0           0           0           0           0           0
 AtZEff=   0.0000000   0.0000000   0.0000000   0.0000000   0.0000000   0.0000000   0.0000000   0.0000000   0.0000000   0.0000000
 NQMom=    0.0000000   0.0000000   0.0000000   0.0000000   0.0000000   0.0000000   0.0000000   0.0000000   0.0000000   0.0000000
 NMagM=    0.0000000   0.0000000   0.0000000   0.0000000   0.0000000   0.0000000   0.0000000   0.0000000   0.0000000   0.0000000
 AtZNuc=   0.0000000   0.0000000   0.0000000   0.0000000   0.0000000   0.0000000   0.0000000   0.0000000   0.0000000   0.0000000

  Atom        31          32          33          34          35          36          37          38          39          40
 IAtWgt=           0           0           0           0           0           0           0           0           0           0
 AtmWgt=   0.0000000   0.0000000   0.0000000   0.0000000   0.0000000   0.0000000   0.0000000   0.0000000   0.0000000   0.0000000
 NucSpn=           0           0           0           0           0           0           0           0           0           0
 AtZEff=   0.0000000   0.0000000   0.0000000   0.0000000   0.0000000   0.0000000   0.0000000   0.0000000   0.0000000   0.0000000
 NQMom=    0.0000000   0.0000000   0.0000000   0.0000000   0.0000000   0.0000000   0.0000000   0.0000000   0.0000000   0.0000000
 NMagM=    0.0000000   0.0000000   0.0000000   0.0000000   0.0000000   0.0000000   0.0000000   0.0000000   0.0000000   0.0000000
 AtZNuc=   0.0000000   0.0000000   0.0000000   0.0000000   0.0000000   0.0000000   0.0000000   0.0000000   0.0000000   0.0000000

  Atom        41          42          43          44          45          46          47          48          49          50
 IAtWgt=           0           0           0           0           0           0           0           0           0           0
 AtmWgt=   0.0000000   0.0000000   0.0000000   0.0000000   0.0000000   0.0000000   0.0000000   0.0000000   0.0000000   0.0000000
 NucSpn=           0           0           0           0           0           0           0           0           0           0
 AtZEff=   0.0000000   0.0000000   0.0000000   0.0000000   0.0000000   0.0000000   0.0000000   0.0000000   0.0000000   0.0000000
 NQMom=    0.0000000   0.0000000   0.0000000   0.0000000   0.0000000   0.0000000   0.0000000   0.0000000   0.0000000   0.0000000
 NMagM=    0.0000000   0.0000000   0.0000000   0.0000000   0.0000000   0.0000000   0.0000000   0.0000000   0.0000000   0.0000000
 AtZNuc=   0.0000000   0.0000000   0.0000000   0.0000000   0.0000000   0.0000000   0.0000000   0.0000000   0.0000000   0.0000000

  Atom        51          52          53          54          55          56          57          58          59          60
 IAtWgt=           0           0           0           0           0           0           0           0           0           0
 AtmWgt=   0.0000000   0.0000000   0.0000000   0.0000000   0.0000000   0.0000000   0.0000000   0.0000000   0.0000000   0.0000000
 NucSpn=           0           0           0           0           0           0           0           0           0           0
 AtZEff=   0.0000000   0.0000000   0.0000000   0.0000000   0.0000000   0.0000000   0.0000000   0.0000000   0.0000000   0.0000000
 NQMom=    0.0000000   0.0000000   0.0000000   0.0000000   0.0000000   0.0000000   0.0000000   0.0000000   0.0000000   0.0000000
 NMagM=    0.0000000   0.0000000   0.0000000   0.0000000   0.0000000   0.0000000   0.0000000   0.0000000   0.0000000   0.0000000
 AtZNuc=   0.0000000   0.0000000   0.0000000   0.0000000   0.0000000   0.0000000   0.0000000   0.0000000   0.0000000   0.0000000

  Atom        61          62          63          64          65          66          67          68          69          70
 IAtWgt=           0           0           0           0           0           0           0           0           0           0
 AtmWgt=   0.0000000   0.0000000   0.0000000   0.0000000   0.0000000   0.0000000   0.0000000   0.0000000   0.0000000   0.0000000
 NucSpn=           0           0           0           0           0           0           0           0           0           0
 AtZEff=   0.0000000   0.0000000   0.0000000   0.0000000   0.0000000   0.0000000   0.0000000   0.0000000   0.0000000   0.0000000
 NQMom=    0.0000000   0.0000000   0.0000000   0.0000000   0.0000000   0.0000000   0.0000000   0.0000000   0.0000000   0.0000000
 NMagM=    0.0000000   0.0000000   0.0000000   0.0000000   0.0000000   0.0000000   0.0000000   0.0000000   0.0000000   0.0000000
 AtZNuc=   0.0000000   0.0000000   0.0000000   0.0000000   0.0000000   0.0000000   0.0000000   0.0000000   0.0000000   0.0000000

  Atom        71          72          73          74          75          76          77          78          79          80
 IAtWgt=           0           0           0           0           0           0           0           0           0           0
 AtmWgt=   0.0000000   0.0000000   0.0000000   0.0000000   0.0000000   0.0000000   0.0000000   0.0000000   0.0000000   0.0000000
 NucSpn=           0           0           0           0           0           0           0           0           0           0
 AtZEff=   0.0000000   0.0000000   0.0000000   0.0000000   0.0000000   0.0000000   0.0000000   0.0000000   0.0000000   0.0000000
 NQMom=    0.0000000   0.0000000   0.0000000   0.0000000   0.0000000   0.0000000   0.0000000   0.0000000   0.0000000   0.0000000
 NMagM=    0.0000000   0.0000000   0.0000000   0.0000000   0.0000000   0.0000000   0.0000000   0.0000000   0.0000000   0.0000000
 AtZNuc=   0.0000000   0.0000000   0.0000000   0.0000000   0.0000000   0.0000000   0.0000000   0.0000000   0.0000000   0.0000000

  Atom        81          82          83          84          85          86          87          88          89          90
 IAtWgt=           0           0           0           0           0           0           0           0           0           0
 AtmWgt=   0.0000000   0.0000000   0.0000000   0.0000000   0.0000000   0.0000000   0.0000000   0.0000000   0.0000000   0.0000000
 NucSpn=           0           0           0           0           0           0           0           0           0           0
 AtZEff=   0.0000000   0.0000000   0.0000000   0.0000000   0.0000000   0.0000000   0.0000000   0.0000000   0.0000000   0.0000000
 NQMom=    0.0000000   0.0000000   0.0000000   0.0000000   0.0000000   0.0000000   0.0000000   0.0000000   0.0000000   0.0000000
 NMagM=    0.0000000   0.0000000   0.0000000   0.0000000   0.0000000   0.0000000   0.0000000   0.0000000   0.0000000   0.0000000
 AtZNuc=   0.0000000   0.0000000   0.0000000   0.0000000   0.0000000   0.0000000   0.0000000   0.0000000   0.0000000   0.0000000

  Atom        91          92          93          94          95          96          97          98          99         100
 IAtWgt=           0           0           0           0           0           0           0           0           0           0
 AtmWgt=   0.0000000   0.0000000   0.0000000   0.0000000   0.0000000   0.0000000   0.0000000   0.0000000   0.0000000   0.0000000
 NucSpn=           0           0           0           0           0           0           0           0           0           0
 AtZEff=   0.0000000   0.0000000   0.0000000   0.0000000   0.0000000   0.0000000   0.0000000   0.0000000   0.0000000   0.0000000
 NQMom=    0.0000000   0.0000000   0.0000000   0.0000000   0.0000000   0.0000000   0.0000000   0.0000000   0.0000000   0.0000000
 NMagM=    0.0000000   0.0000000   0.0000000   0.0000000   0.0000000   0.0000000   0.0000000   0.0000000   0.0000000   0.0000000
 AtZNuc=   0.0000000   0.0000000   0.0000000   0.0000000   0.0000000   0.0000000   0.0000000   0.0000000   0.0000000   0.0000000

  Atom       101         102         103         104         105         106         107         108         109         110
 IAtWgt=           0           0           0           0           0           0           0           0           0           0
 AtmWgt=   0.0000000   0.0000000   0.0000000   0.0000000   0.0000000   0.0000000   0.0000000   0.0000000   0.0000000   0.0000000
 NucSpn=           0           0           0           0           0           0           0           0           0           0
 AtZEff=   0.0000000   0.0000000   0.0000000   0.0000000   0.0000000   0.0000000   0.0000000   0.0000000   0.0000000   0.0000000
 NQMom=    0.0000000   0.0000000   0.0000000   0.0000000   0.0000000   0.0000000   0.0000000   0.0000000   0.0000000   0.0000000
 NMagM=    0.0000000   0.0000000   0.0000000   0.0000000   0.0000000   0.0000000   0.0000000   0.0000000   0.0000000   0.0000000
 AtZNuc=   0.0000000   0.0000000   0.0000000   0.0000000   0.0000000   0.0000000   0.0000000   0.0000000   0.0000000   0.0000000

  Atom       111         112         113         114         115         116         117         118         119         120
 IAtWgt=           0           0           0           0           0           0           0           0           0           0
 AtmWgt=   0.0000000   0.0000000   0.0000000   0.0000000   0.0000000   0.0000000   0.0000000   0.0000000   0.0000000   0.0000000
 NucSpn=           0           0           0           0           0           0           0           0           0           0
 AtZEff=   0.0000000   0.0000000   0.0000000   0.0000000   0.0000000   0.0000000   0.0000000   0.0000000   0.0000000   0.0000000
 NQMom=    0.0000000   0.0000000   0.0000000   0.0000000   0.0000000   0.0000000   0.0000000   0.0000000   0.0000000   0.0000000
 NMagM=    0.0000000   0.0000000   0.0000000   0.0000000   0.0000000   0.0000000   0.0000000   0.0000000   0.0000000   0.0000000
 AtZNuc=   0.0000000   0.0000000   0.0000000   0.0000000   0.0000000   0.0000000   0.0000000   0.0000000   0.0000000   0.0000000

  Atom       121         122         123         124         125         126         127         128         129         130
 IAtWgt=           0           0           0           0           0           0           0           0           0           0
 AtmWgt=   0.0000000   0.0000000   0.0000000   0.0000000   0.0000000   0.0000000   0.0000000   0.0000000   0.0000000   0.0000000
 NucSpn=           0           0           0           0           0           0           0           0           0           0
 AtZEff=   0.0000000   0.0000000   0.0000000   0.0000000   0.0000000   0.0000000   0.0000000   0.0000000   0.0000000   0.0000000
 NQMom=    0.0000000   0.0000000   0.0000000   0.0000000   0.0000000   0.0000000   0.0000000   0.0000000   0.0000000   0.0000000
 NMagM=    0.0000000   0.0000000   0.0000000   0.0000000   0.0000000   0.0000000   0.0000000   0.0000000   0.0000000   0.0000000
 AtZNuc=   0.0000000   0.0000000   0.0000000   0.0000000   0.0000000   0.0000000   0.0000000   0.0000000   0.0000000   0.0000000

  Atom       131         132         133         134         135         136         137         138         139         140
 IAtWgt=           0           0           0           0           0           0           0           0           0           0
 AtmWgt=   0.0000000   0.0000000   0.0000000   0.0000000   0.0000000   0.0000000   0.0000000   0.0000000   0.0000000   0.0000000
 NucSpn=           0           0           0           0           0           0           0           0           0           0
 AtZEff=   0.0000000   0.0000000   0.0000000   0.0000000   0.0000000   0.0000000   0.0000000   0.0000000   0.0000000   0.0000000
 NQMom=    0.0000000   0.0000000   0.0000000   0.0000000   0.0000000   0.0000000   0.0000000   0.0000000   0.0000000   0.0000000
 NMagM=    0.0000000   0.0000000   0.0000000   0.0000000   0.0000000   0.0000000   0.0000000   0.0000000   0.0000000   0.0000000
 AtZNuc=   0.0000000   0.0000000   0.0000000   0.0000000   0.0000000   0.0000000   0.0000000   0.0000000   0.0000000   0.0000000

  Atom       141         142         143         144         145         146         147         148         149         150
 IAtWgt=           0           0           0           0           0           0           0           0           0           0
 AtmWgt=   0.0000000   0.0000000   0.0000000   0.0000000   0.0000000   0.0000000   0.0000000   0.0000000   0.0000000   0.0000000
 NucSpn=           0           0           0           0           0           0           0           0           0           0
 AtZEff=   0.0000000   0.0000000   0.0000000   0.0000000   0.0000000   0.0000000   0.0000000   0.0000000   0.0000000   0.0000000
 NQMom=    0.0000000   0.0000000   0.0000000   0.0000000   0.0000000   0.0000000   0.0000000   0.0000000   0.0000000   0.0000000
 NMagM=    0.0000000   0.0000000   0.0000000   0.0000000   0.0000000   0.0000000   0.0000000   0.0000000   0.0000000   0.0000000
 AtZNuc=   0.0000000   0.0000000   0.0000000   0.0000000   0.0000000   0.0000000   0.0000000   0.0000000   0.0000000   0.0000000

  Atom       151         152         153         154         155         156         157         158         159         160
 IAtWgt=           0           0           0           0           0           0           0           0           0           0
 AtmWgt=   0.0000000   0.0000000   0.0000000   0.0000000   0.0000000   0.0000000   0.0000000   0.0000000   0.0000000   0.0000000
 NucSpn=           0           0           0           0           0           0           0           0           0           0
 AtZEff=   0.0000000   0.0000000   0.0000000   0.0000000   0.0000000   0.0000000   0.0000000   0.0000000   0.0000000   0.0000000
 NQMom=    0.0000000   0.0000000   0.0000000   0.0000000   0.0000000   0.0000000   0.0000000   0.0000000   0.0000000   0.0000000
 NMagM=    0.0000000   0.0000000   0.0000000   0.0000000   0.0000000   0.0000000   0.0000000   0.0000000   0.0000000   0.0000000
 AtZNuc=   0.0000000   0.0000000   0.0000000   0.0000000   0.0000000   0.0000000   0.0000000   0.0000000   0.0000000   0.0000000

  Atom       161         162         163         164         165         166         167         168         169         170
 IAtWgt=           0           0           0           0           0           0           0           0           0           0
 AtmWgt=   0.0000000   0.0000000   0.0000000   0.0000000   0.0000000   0.0000000   0.0000000   0.0000000   0.0000000   0.0000000
 NucSpn=           0           0           0           0           0           0           0           0           0           0
 AtZEff=   0.0000000   0.0000000   0.0000000   0.0000000   0.0000000   0.0000000   0.0000000   0.0000000   0.0000000   0.0000000
 NQMom=    0.0000000   0.0000000   0.0000000   0.0000000   0.0000000   0.0000000   0.0000000   0.0000000   0.0000000   0.0000000
 NMagM=    0.0000000   0.0000000   0.0000000   0.0000000   0.0000000   0.0000000   0.0000000   0.0000000   0.0000000   0.0000000
 AtZNuc=   0.0000000   0.0000000   0.0000000   0.0000000   0.0000000   0.0000000   0.0000000   0.0000000   0.0000000   0.0000000

  Atom       171         172         173         174         175         176         177         178         179         180
 IAtWgt=           0           0           0           0           0           0           0           0           0           0
 AtmWgt=   0.0000000   0.0000000   0.0000000   0.0000000   0.0000000   0.0000000   0.0000000   0.0000000   0.0000000   0.0000000
 NucSpn=           0           0           0           0           0           0           0           0           0           0
 AtZEff=   0.0000000   0.0000000   0.0000000   0.0000000   0.0000000   0.0000000   0.0000000   0.0000000   0.0000000   0.0000000
 NQMom=    0.0000000   0.0000000   0.0000000   0.0000000   0.0000000   0.0000000   0.0000000   0.0000000   0.0000000   0.0000000
 NMagM=    0.0000000   0.0000000   0.0000000   0.0000000   0.0000000   0.0000000   0.0000000   0.0000000   0.0000000   0.0000000
 AtZNuc=   0.0000000   0.0000000   0.0000000   0.0000000   0.0000000   0.0000000   0.0000000   0.0000000   0.0000000   0.0000000

  Atom       181         182         183         184         185         186         187         188         189         190
 IAtWgt=           0           0           0           0           0           0           0           0           0           0
 AtmWgt=   0.0000000   0.0000000   0.0000000   0.0000000   0.0000000   0.0000000   0.0000000   0.0000000   0.0000000   0.0000000
 NucSpn=           0           0           0           0           0           0           0           0           0           0
 AtZEff=   0.0000000   0.0000000   0.0000000   0.0000000   0.0000000   0.0000000   0.0000000   0.0000000   0.0000000   0.0000000
 NQMom=    0.0000000   0.0000000   0.0000000   0.0000000   0.0000000   0.0000000   0.0000000   0.0000000   0.0000000   0.0000000
 NMagM=    0.0000000   0.0000000   0.0000000   0.0000000   0.0000000   0.0000000   0.0000000   0.0000000   0.0000000   0.0000000
 AtZNuc=   0.0000000   0.0000000   0.0000000   0.0000000   0.0000000   0.0000000   0.0000000   0.0000000   0.0000000   0.0000000

  Atom       191         192         193         194         195         196         197         198         199         200
 IAtWgt=           0           0           0           0           0           0           0           0           0           0
 AtmWgt=   0.0000000   0.0000000   0.0000000   0.0000000   0.0000000   0.0000000   0.0000000   0.0000000   0.0000000   0.0000000
 NucSpn=           0           0           0           0           0           0           0           0           0           0
 AtZEff=   0.0000000   0.0000000   0.0000000   0.0000000   0.0000000   0.0000000   0.0000000   0.0000000   0.0000000   0.0000000
 NQMom=    0.0000000   0.0000000   0.0000000   0.0000000   0.0000000   0.0000000   0.0000000   0.0000000   0.0000000   0.0000000
 NMagM=    0.0000000   0.0000000   0.0000000   0.0000000   0.0000000   0.0000000   0.0000000   0.0000000   0.0000000   0.0000000
 AtZNuc=   0.0000000   0.0000000   0.0000000   0.0000000   0.0000000   0.0000000   0.0000000   0.0000000   0.0000000   0.0000000

  Atom       201         202         203         204         205         206         207         208         209         210
 IAtWgt=           0           0           0           0           0           0           0           0           0           0
 AtmWgt=   0.0000000   0.0000000   0.0000000   0.0000000   0.0000000   0.0000000   0.0000000   0.0000000   0.0000000   0.0000000
 NucSpn=           0           0           0           0           0           0           0           0           0           0
 AtZEff=   0.0000000   0.0000000   0.0000000   0.0000000   0.0000000   0.0000000   0.0000000   0.0000000   0.0000000   0.0000000
 NQMom=    0.0000000   0.0000000   0.0000000   0.0000000   0.0000000   0.0000000   0.0000000   0.0000000   0.0000000   0.0000000
 NMagM=    0.0000000   0.0000000   0.0000000   0.0000000   0.0000000   0.0000000   0.0000000   0.0000000   0.0000000   0.0000000
 AtZNuc=   0.0000000   0.0000000   0.0000000   0.0000000   0.0000000   0.0000000   0.0000000   0.0000000   0.0000000   0.0000000

  Atom       211         212
 IAtWgt=           0           0
 AtmWgt=   0.0000000   0.0000000
 NucSpn=           0           0
 AtZEff=   0.0000000   0.0000000
 NQMom=    0.0000000   0.0000000
 NMagM=    0.0000000   0.0000000
 AtZNuc=   0.0000000   0.0000000
 Leave Link  101 at Sat Jul 13 01:00:22 2024, MaxMem=  2684354560 cpu:               1.0 elap:               0.2
 (Enter D:\study\G16W\l202.exe)
 Symmetry turned off:
 Cannot cope with ghost atoms or with translation vectors.
 Stoichiometry    C6H6
 Framework group  C1[X(C6H6)]
 NumDoF:  NAt=    12 NAtoms=   212
 Deg. of freedom     0
 Full point group                 C1      NOp   1
                          Input orientation:                          
 ---------------------------------------------------------------------
 Center     Atomic      Atomic             Coordinates (Angstroms)
 Number     Number       Type             X           Y           Z
 ---------------------------------------------------------------------
      1          6           0        0.000000    1.397000    0.000000
      2          6           0        1.209000    0.698000    0.000000
      3          6           0        1.209000   -0.698000    0.000000
      4          6           0        0.000000   -1.397000    0.000000
      5          6           0       -1.209000   -0.698000    0.000000
      6          6           0       -1.209000    0.698000    0.000000
      7          1           0        0.000000    2.483000    0.000000
      8          1           0        2.151000    1.242000    0.000000
      9          1           0        2.151000   -1.242000    0.000000
     10          1           0        0.000000   -2.483000    0.000000
     11          1           0       -2.151000   -1.242000    0.000000
     12          1           0       -2.151000    1.242000    0.000000
     13          0           0        0.000000    0.000000    0.000000
     14          0           0        0.000000    0.000000    0.050251
     15          0           0        0.000000    0.000000    0.100503
     16          0           0        0.000000    0.000000    0.150754
     17          0           0        0.000000    0.000000    0.201005
     18          0           0        0.000000    0.000000    0.251256
     19          0           0        0.000000    0.000000    0.301508
     20          0           0        0.000000    0.000000    0.351759
     21          0           0        0.000000    0.000000    0.402010
     22          0           0        0.000000    0.000000    0.452261
     23          0           0        0.000000    0.000000    0.502513
     24          0           0        0.000000    0.000000    0.552764
     25          0           0        0.000000    0.000000    0.603015
     26          0           0        0.000000    0.000000    0.653266
     27          0           0        0.000000    0.000000    0.703518
     28          0           0        0.000000    0.000000    0.753769
     29          0           0        0.000000    0.000000    0.804020
     30          0           0        0.000000    0.000000    0.854271
     31          0           0        0.000000    0.000000    0.904523
     32          0           0        0.000000    0.000000    0.954774
     33          0           0        0.000000    0.000000    1.005025
     34          0           0        0.000000    0.000000    1.055276
     35          0           0        0.000000    0.000000    1.105528
     36          0           0        0.000000    0.000000    1.155779
     37          0           0        0.000000    0.000000    1.206030
     38          0           0        0.000000    0.000000    1.256281
     39          0           0        0.000000    0.000000    1.306533
     40          0           0        0.000000    0.000000    1.356784
     41          0           0        0.000000    0.000000    1.407035
     42          0           0        0.000000    0.000000    1.457286
     43          0           0        0.000000    0.000000    1.507538
     44          0           0        0.000000    0.000000    1.557789
     45          0           0        0.000000    0.000000    1.608040
     46          0           0        0.000000    0.000000    1.658291
     47          0           0        0.000000    0.000000    1.708543
     48          0           0        0.000000    0.000000    1.758794
     49          0           0        0.000000    0.000000    1.809045
     50          0           0        0.000000    0.000000    1.859296
     51          0           0        0.000000    0.000000    1.909548
     52          0           0        0.000000    0.000000    1.959799
     53          0           0        0.000000    0.000000    2.010050
     54          0           0        0.000000    0.000000    2.060302
     55          0           0        0.000000    0.000000    2.110553
     56          0           0        0.000000    0.000000    2.160804
     57          0           0        0.000000    0.000000    2.211055
     58          0           0        0.000000    0.000000    2.261307
     59          0           0        0.000000    0.000000    2.311558
     60          0           0        0.000000    0.000000    2.361809
     61          0           0        0.000000    0.000000    2.412060
     62          0           0        0.000000    0.000000    2.462312
     63          0           0        0.000000    0.000000    2.512563
     64          0           0        0.000000    0.000000    2.562814
     65          0           0        0.000000    0.000000    2.613065
     66          0           0        0.000000    0.000000    2.663317
     67          0           0        0.000000    0.000000    2.713568
     68          0           0        0.000000    0.000000    2.763819
     69          0           0        0.000000    0.000000    2.814070
     70          0           0        0.000000    0.000000    2.864322
     71          0           0        0.000000    0.000000    2.914573
     72          0           0        0.000000    0.000000    2.964824
     73          0           0        0.000000    0.000000    3.015075
     74          0           0        0.000000    0.000000    3.065327
     75          0           0        0.000000    0.000000    3.115578
     76          0           0        0.000000    0.000000    3.165829
     77          0           0        0.000000    0.000000    3.216080
     78          0           0        0.000000    0.000000    3.266332
     79          0           0        0.000000    0.000000    3.316583
     80          0           0        0.000000    0.000000    3.366834
     81          0           0        0.000000    0.000000    3.417085
     82          0           0        0.000000    0.000000    3.467337
     83          0           0        0.000000    0.000000    3.517588
     84          0           0        0.000000    0.000000    3.567839
     85          0           0        0.000000    0.000000    3.618090
     86          0           0        0.000000    0.000000    3.668342
     87          0           0        0.000000    0.000000    3.718593
     88          0           0        0.000000    0.000000    3.768844
     89          0           0        0.000000    0.000000    3.819095
     90          0           0        0.000000    0.000000    3.869347
     91          0           0        0.000000    0.000000    3.919598
     92          0           0        0.000000    0.000000    3.969849
     93          0           0        0.000000    0.000000    4.020101
     94          0           0        0.000000    0.000000    4.070352
     95          0           0        0.000000    0.000000    4.120603
     96          0           0        0.000000    0.000000    4.170854
     97          0           0        0.000000    0.000000    4.221106
     98          0           0        0.000000    0.000000    4.271357
     99          0           0        0.000000    0.000000    4.321608
    100          0           0        0.000000    0.000000    4.371859
    101          0           0        0.000000    0.000000    4.422111
    102          0           0        0.000000    0.000000    4.472362
    103          0           0        0.000000    0.000000    4.522613
    104          0           0        0.000000    0.000000    4.572864
    105          0           0        0.000000    0.000000    4.623116
    106          0           0        0.000000    0.000000    4.673367
    107          0           0        0.000000    0.000000    4.723618
    108          0           0        0.000000    0.000000    4.773869
    109          0           0        0.000000    0.000000    4.824121
    110          0           0        0.000000    0.000000    4.874372
    111          0           0        0.000000    0.000000    4.924623
    112          0           0        0.000000    0.000000    4.974874
    113          0           0        0.000000    0.000000    5.025126
    114          0           0        0.000000    0.000000    5.075377
    115          0           0        0.000000    0.000000    5.125628
    116          0           0        0.000000    0.000000    5.175879
    117          0           0        0.000000    0.000000    5.226131
    118          0           0        0.000000    0.000000    5.276382
    119          0           0        0.000000    0.000000    5.326633
    120          0           0        0.000000    0.000000    5.376884
    121          0           0        0.000000    0.000000    5.427136
    122          0           0        0.000000    0.000000    5.477387
    123          0           0        0.000000    0.000000    5.527638
    124          0           0        0.000000    0.000000    5.577889
    125          0           0        0.000000    0.000000    5.628141
    126          0           0        0.000000    0.000000    5.678392
    127          0           0        0.000000    0.000000    5.728643
    128          0           0        0.000000    0.000000    5.778894
    129          0           0        0.000000    0.000000    5.829146
    130          0           0        0.000000    0.000000    5.879397
    131          0           0        0.000000    0.000000    5.929648
    132          0           0        0.000000    0.000000    5.979899
    133          0           0        0.000000    0.000000    6.030151
    134          0           0        0.000000    0.000000    6.080402
    135          0           0        0.000000    0.000000    6.130653
    136          0           0        0.000000    0.000000    6.180905
    137          0           0        0.000000    0.000000    6.231156
    138          0           0        0.000000    0.000000    6.281407
    139          0           0        0.000000    0.000000    6.331658
    140          0           0        0.000000    0.000000    6.381910
    141          0           0        0.000000    0.000000    6.432161
    142          0           0        0.000000    0.000000    6.482412
    143          0           0        0.000000    0.000000    6.532663
    144          0           0        0.000000    0.000000    6.582915
    145          0           0        0.000000    0.000000    6.633166
    146          0           0        0.000000    0.000000    6.683417
    147          0           0        0.000000    0.000000    6.733668
    148          0           0        0.000000    0.000000    6.783920
    149          0           0        0.000000    0.000000    6.834171
    150          0           0        0.000000    0.000000    6.884422
    151          0           0        0.000000    0.000000    6.934673
    152          0           0        0.000000    0.000000    6.984925
    153          0           0        0.000000    0.000000    7.035176
    154          0           0        0.000000    0.000000    7.085427
    155          0           0        0.000000    0.000000    7.135678
    156          0           0        0.000000    0.000000    7.185930
    157          0           0        0.000000    0.000000    7.236181
    158          0           0        0.000000    0.000000    7.286432
    159          0           0        0.000000    0.000000    7.336683
    160          0           0        0.000000    0.000000    7.386935
    161          0           0        0.000000    0.000000    7.437186
    162          0           0        0.000000    0.000000    7.487437
    163          0           0        0.000000    0.000000    7.537688
    164          0           0        0.000000    0.000000    7.587940
    165          0           0        0.000000    0.000000    7.638191
    166          0           0        0.000000    0.000000    7.688442
    167          0           0        0.000000    0.000000    7.738693
    168          0           0        0.000000    0.000000    7.788945
    169          0           0        0.000000    0.000000    7.839196
    170          0           0        0.000000    0.000000    7.889447
    171          0           0        0.000000    0.000000    7.939698
    172          0           0        0.000000    0.000000    7.989950
    173          0           0        0.000000    0.000000    8.040201
    174          0           0        0.000000    0.000000    8.090452
    175          0           0        0.000000    0.000000    8.140704
    176          0           0        0.000000    0.000000    8.190955
    177          0           0        0.000000    0.000000    8.241206
    178          0           0        0.000000    0.000000    8.291457
    179          0           0        0.000000    0.000000    8.341709
    180          0           0        0.000000    0.000000    8.391960
    181          0           0        0.000000    0.000000    8.442211
    182          0           0        0.000000    0.000000    8.492462
    183          0           0        0.000000    0.000000    8.542714
    184          0           0        0.000000    0.000000    8.592965
    185          0           0        0.000000    0.000000    8.643216
    186          0           0        0.000000    0.000000    8.693467
    187          0           0        0.000000    0.000000    8.743719
    188          0           0        0.000000    0.000000    8.793970
    189          0           0        0.000000    0.000000    8.844221
    190          0           0        0.000000    0.000000    8.894472
    191          0           0        0.000000    0.000000    8.944724
    192          0           0        0.000000    0.000000    8.994975
    193          0           0        0.000000    0.000000    9.045226
    194          0           0        0.000000    0.000000    9.095477
    195          0           0        0.000000    0.000000    9.145729
    196          0           0        0.000000    0.000000    9.195980
    197          0           0        0.000000    0.000000    9.246231
    198          0           0        0.000000    0.000000    9.296482
    199          0           0        0.000000    0.000000    9.346734
    200          0           0        0.000000    0.000000    9.396985
    201          0           0        0.000000    0.000000    9.447236
    202          0           0        0.000000    0.000000    9.497487
    203          0           0        0.000000    0.000000    9.547739
    204          0           0        0.000000    0.000000    9.597990
    205          0           0        0.000000    0.000000    9.648241
    206          0           0        0.000000    0.000000    9.698492
    207          0           0        0.000000    0.000000    9.748744
    208          0           0        0.000000    0.000000    9.798995
    209          0           0        0.000000    0.000000    9.849246
    210          0           0        0.000000    0.000000    9.899497
    211          0           0        0.000000    0.000000    9.949749
    212          0           0        0.000000    0.000000   10.000000
 ---------------------------------------------------------------------
 Rotational constants (GHZ):           5.6903905           5.6867215           2.8442777
 Leave Link  202 at Sat Jul 13 01:00:22 2024, MaxMem=  2684354560 cpu:               0.0 elap:               0.1
 (Enter D:\study\G16W\l301.exe)
 Standard basis: 6-31+G(d) (6D, 7F)
 Warning:  center  13 has no basis functions!
 Warning:  center  14 has no basis functions!
 Warning:  center  15 has no basis functions!
 Warning:  center  16 has no basis functions!
 Warning:  center  17 has no basis functions!
 Warning:  center  18 has no basis functions!
 Warning:  center  19 has no basis functions!
 Warning:  center  20 has no basis functions!
 Warning:  center  21 has no basis functions!
 Warning:  center  22 has no basis functions!
 Warning:  center  23 has no basis functions!
 Warning:  center  24 has no basis functions!
 Warning:  center  25 has no basis functions!
 Warning:  center  26 has no basis functions!
 Warning:  center  27 has no basis functions!
 Warning:  center  28 has no basis functions!
 Warning:  center  29 has no basis functions!
 Warning:  center  30 has no basis functions!
 Warning:  center  31 has no basis functions!
 Warning:  center  32 has no basis functions!
 Warning:  center  33 has no basis functions!
 Warning:  center  34 has no basis functions!
 Warning:  center  35 has no basis functions!
 Warning:  center  36 has no basis functions!
 Warning:  center  37 has no basis functions!
 Warning:  center  38 has no basis functions!
 Warning:  center  39 has no basis functions!
 Warning:  center  40 has no basis functions!
 Warning:  center  41 has no basis functions!
 Warning:  center  42 has no basis functions!
 Warning:  center  43 has no basis functions!
 Warning:  center  44 has no basis functions!
 Warning:  center  45 has no basis functions!
 Warning:  center  46 has no basis functions!
 Warning:  center  47 has no basis functions!
 Warning:  center  48 has no basis functions!
 Warning:  center  49 has no basis functions!
 Warning:  center  50 has no basis functions!
 Warning:  center  51 has no basis functions!
 Warning:  center  52 has no basis functions!
 Warning:  center  53 has no basis functions!
 Warning:  center  54 has no basis functions!
 Warning:  center  55 has no basis functions!
 Warning:  center  56 has no basis functions!
 Warning:  center  57 has no basis functions!
 Warning:  center  58 has no basis functions!
 Warning:  center  59 has no basis functions!
 Warning:  center  60 has no basis functions!
 Warning:  center  61 has no basis functions!
 Warning:  center  62 has no basis functions!
 Warning:  center  63 has no basis functions!
 Warning:  center  64 has no basis functions!
 Warning:  center  65 has no basis functions!
 Warning:  center  66 has no basis functions!
 Warning:  center  67 has no basis functions!
 Warning:  center  68 has no basis functions!
 Warning:  center  69 has no basis functions!
 Warning:  center  70 has no basis functions!
 Warning:  center  71 has no basis functions!
 Warning:  center  72 has no basis functions!
 Warning:  center  73 has no basis functions!
 Warning:  center  74 has no basis functions!
 Warning:  center  75 has no basis functions!
 Warning:  center  76 has no basis functions!
 Warning:  center  77 has no basis functions!
 Warning:  center  78 has no basis functions!
 Warning:  center  79 has no basis functions!
 Warning:  center  80 has no basis functions!
 Warning:  center  81 has no basis functions!
 Warning:  center  82 has no basis functions!
 Warning:  center  83 has no basis functions!
 Warning:  center  84 has no basis functions!
 Warning:  center  85 has no basis functions!
 Warning:  center  86 has no basis functions!
 Warning:  center  87 has no basis functions!
 Warning:  center  88 has no basis functions!
 Warning:  center  89 has no basis functions!
 Warning:  center  90 has no basis functions!
 Warning:  center  91 has no basis functions!
 Warning:  center  92 has no basis functions!
 Warning:  center  93 has no basis functions!
 Warning:  center  94 has no basis functions!
 Warning:  center  95 has no basis functions!
 Warning:  center  96 has no basis functions!
 Warning:  center  97 has no basis functions!
 Warning:  center  98 has no basis functions!
 Warning:  center  99 has no basis functions!
 Warning:  center 100 has no basis functions!
 Warning:  center 101 has no basis functions!
 Warning:  center 102 has no basis functions!
 Warning:  center 103 has no basis functions!
 Warning:  center 104 has no basis functions!
 Warning:  center 105 has no basis functions!
 Warning:  center 106 has no basis functions!
 Warning:  center 107 has no basis functions!
 Warning:  center 108 has no basis functions!
 Warning:  center 109 has no basis functions!
 Warning:  center 110 has no basis functions!
 Warning:  center 111 has no basis functions!
 Warning:  center 112 has no basis functions!
 Warning:  center 113 has no basis functions!
 Warning:  center 114 has no basis functions!
 Warning:  center 115 has no basis functions!
 Warning:  center 116 has no basis functions!
 Warning:  center 117 has no basis functions!
 Warning:  center 118 has no basis functions!
 Warning:  center 119 has no basis functions!
 Warning:  center 120 has no basis functions!
 Warning:  center 121 has no basis functions!
 Warning:  center 122 has no basis functions!
 Warning:  center 123 has no basis functions!
 Warning:  center 124 has no basis functions!
 Warning:  center 125 has no basis functions!
 Warning:  center 126 has no basis functions!
 Warning:  center 127 has no basis functions!
 Warning:  center 128 has no basis functions!
 Warning:  center 129 has no basis functions!
 Warning:  center 130 has no basis functions!
 Warning:  center 131 has no basis functions!
 Warning:  center 132 has no basis functions!
 Warning:  center 133 has no basis functions!
 Warning:  center 134 has no basis functions!
 Warning:  center 135 has no basis functions!
 Warning:  center 136 has no basis functions!
 Warning:  center 137 has no basis functions!
 Warning:  center 138 has no basis functions!
 Warning:  center 139 has no basis functions!
 Warning:  center 140 has no basis functions!
 Warning:  center 141 has no basis functions!
 Warning:  center 142 has no basis functions!
 Warning:  center 143 has no basis functions!
 Warning:  center 144 has no basis functions!
 Warning:  center 145 has no basis functions!
 Warning:  center 146 has no basis functions!
 Warning:  center 147 has no basis functions!
 Warning:  center 148 has no basis functions!
 Warning:  center 149 has no basis functions!
 Warning:  center 150 has no basis functions!
 Warning:  center 151 has no basis functions!
 Warning:  center 152 has no basis functions!
 Warning:  center 153 has no basis functions!
 Warning:  center 154 has no basis functions!
 Warning:  center 155 has no basis functions!
 Warning:  center 156 has no basis functions!
 Warning:  center 157 has no basis functions!
 Warning:  center 158 has no basis functions!
 Warning:  center 159 has no basis functions!
 Warning:  center 160 has no basis functions!
 Warning:  center 161 has no basis functions!
 Warning:  center 162 has no basis functions!
 Warning:  center 163 has no basis functions!
 Warning:  center 164 has no basis functions!
 Warning:  center 165 has no basis functions!
 Warning:  center 166 has no basis functions!
 Warning:  center 167 has no basis functions!
 Warning:  center 168 has no basis functions!
 Warning:  center 169 has no basis functions!
 Warning:  center 170 has no basis functions!
 Warning:  center 171 has no basis functions!
 Warning:  center 172 has no basis functions!
 Warning:  center 173 has no basis functions!
 Warning:  center 174 has no basis functions!
 Warning:  center 175 has no basis functions!
 Warning:  center 176 has no basis functions!
 Warning:  center 177 has no basis functions!
 Warning:  center 178 has no basis functions!
 Warning:  center 179 has no basis functions!
 Warning:  center 180 has no basis functions!
 Warning:  center 181 has no basis functions!
 Warning:  center 182 has no basis functions!
 Warning:  center 183 has no basis functions!
 Warning:  center 184 has no basis functions!
 Warning:  center 185 has no basis functions!
 Warning:  center 186 has no basis functions!
 Warning:  center 187 has no basis functions!
 Warning:  center 188 has no basis functions!
 Warning:  center 189 has no basis functions!
 Warning:  center 190 has no basis functions!
 Warning:  center 191 has no basis functions!
 Warning:  center 192 has no basis functions!
 Warning:  center 193 has no basis functions!
 Warning:  center 194 has no basis functions!
 Warning:  center 195 has no basis functions!
 Warning:  center 196 has no basis functions!
 Warning:  center 197 has no basis functions!
 Warning:  center 198 has no basis functions!
 Warning:  center 199 has no basis functions!
 Warning:  center 200 has no basis functions!
 Warning:  center 201 has no basis functions!
 Warning:  center 202 has no basis functions!
 Warning:  center 203 has no basis functions!
 Warning:  center 204 has no basis functions!
 Warning:  center 205 has no basis functions!
 Warning:  center 206 has no basis functions!
 Warning:  center 207 has no basis functions!
 Warning:  center 208 has no basis functions!
 Warning:  center 209 has no basis functions!
 Warning:  center 210 has no basis functions!
 Warning:  center 211 has no basis functions!
 Warning:  center 212 has no basis functions!
 Ernie: Thresh=  0.10000D-02 Tol=  0.10000D-05 Strict=F.
   126 basis functions,   216 primitive gaussians,   126 cartesian basis functions
    21 alpha electrons       21 beta electrons
       nuclear repulsion energy       203.2143936627 Hartrees.
 IExCor=  402 DFT=T Ex+Corr=B3LYP ExCW=0 ScaHFX=  0.200000
 ScaDFX=  0.800000  0.720000  1.000000  0.810000 ScalE2=  1.000000  1.000000
 IRadAn=      5 IRanWt=     -1 IRanGd=            0 ICorTp=0 IEmpDi=  4
 NAtoms=  212 NActive=  212 NUniq=  212 SFac= 1.00D+00 NAtFMM=   60 NAOKFM=T Big=T
 Integral buffers will be    131072 words long.
 Raffenetti 2 integral format.
 Two-electron integral symmetry is turned off.
 Leave Link  301 at Sat Jul 13 01:00:22 2024, MaxMem=  2684354560 cpu:               0.0 elap:               0.1
 (Enter D:\study\G16W\l302.exe)
 NPDir=0 NMtPBC=     1 NCelOv=     1 NCel=       1 NClECP=     1 NCelD=      1
         NCelK=      1 NCelE2=     1 NClLst=     1 CellRange=     0.0.
 One-electron integrals computed using PRISM.
 NBasis=   126 RedAO= T EigKep=  6.43D-06  NBF=   126
 NBsUse=   126 1.00D-06 EigRej= -1.00D+00 NBFU=   126
 Precomputing XC quadrature grid using
 IXCGrd= 4 IRadAn=           5 IRanWt=          -1 IRanGd=           0 AccXCQ= 0.00D+00.
 Generated NRdTot=       0 NPtTot=           0 NUsed=           0 NTot=          32
 NSgBfM=   126   126   126   126   126 MxSgAt=   212 MxSgA2=    12.
 Leave Link  302 at Sat Jul 13 01:00:23 2024, MaxMem=  2684354560 cpu:               1.0 elap:               0.6
 (Enter D:\study\G16W\l303.exe)
 DipDrv:  MaxL=1.
 Leave Link  303 at Sat Jul 13 01:00:23 2024, MaxMem=  2684354560 cpu:               0.0 elap:               0.2
 (Enter D:\study\G16W\l308.exe)
 Leave Link  308 at Sat Jul 13 01:00:23 2024, MaxMem=  2684354560 cpu:               0.0 elap:               0.2
 (Enter D:\study\G16W\l401.exe)
 ExpMin= 4.38D-02 ExpMax= 3.05D+03 ExpMxC= 4.57D+02 IAcc=3 IRadAn=         5 AccDes= 0.00D+00
 Harris functional with IExCor=  402 and IRadAn=       5 diagonalized for initial guess.
 HarFok:  IExCor=  402 AccDes= 0.00D+00 IRadAn=         5 IDoV= 1 UseB2=F ITyADJ=14
 ICtDFT=  3500011 ScaDFX=  1.000000  1.000000  1.000000  1.000000
 FoFCou: FMM=F IPFlag=           0 FMFlag=      100000 FMFlg1=        2001
         NFxFlg=           0 DoJE=T BraDBF=F KetDBF=T FulRan=T
         wScrn=  0.000000 ICntrl=       500 IOpCl=  0 I1Cent=   200000004 NGrid=           0
         NMat0=    1 NMatS0=      1 NMatT0=    0 NMatD0=    1 NMtDS0=    0 NMtDT0=    0
 Symmetry not used in FoFCou.
 Harris En= -232.281121249352    
 JPrj=0 DoOrth=F DoCkMO=F.
 Leave Link  401 at Sat Jul 13 01:00:24 2024, MaxMem=  2684354560 cpu:               1.0 elap:               0.7
 (Enter D:\study\G16W\l502.exe)
 Two-electron integral symmetry not used.
 Closed shell SCF:
 Using DIIS extrapolation, IDIIS=  1040.
 NGot=  2684354560 LenX=  2684315704 LenY=  2684299387
 Requested convergence on RMS density matrix=1.00D-08 within 128 cycles.
 Requested convergence on MAX density matrix=1.00D-06.
 Requested convergence on             energy=1.00D-06.
 No special actions if energy rises.
 Fock matrices will be formed incrementally for  20 cycles.

 Cycle   1  Pass 1  IDiag  1:
 FoFJK:  IHMeth= 1 ICntrl=       0 DoSepK=F KAlg= 0 I1Cent=           0 FoldK=F
 IRaf= 990000000 NMat=       1 IRICut=       1 DoRegI=T DoRafI=F ISym2E= 0 IDoP0=0 IntGTp=1.
 FoFCou: FMM=T IPFlag=           0 FMFlag=      100000 FMFlg1=        2001
         NFxFlg=           0 DoJE=F BraDBF=F KetDBF=F FulRan=T
         wScrn=  0.000000 ICntrl=         0 IOpCl=  0 I1Cent=           0 NGrid=           0
         NMat0=    1 NMatS0=      1 NMatT0=    0 NMatD0=    1 NMtDS0=    0 NMtDT0=    0
 Symmetry not used in FoFCou.
 FMM levels:  10  Number of levels for PrismC:   9
 E= -232.103963003475    
 DIIS: error= 3.12D-02 at cycle   1 NSaved=   1.
 NSaved= 1 IEnMin= 1 EnMin= -232.103963003475     IErMin= 1 ErrMin= 3.12D-02
 ErrMax= 3.12D-02  0.00D+00 EMaxC= 1.00D-01 BMatC= 1.33D-01 BMatP= 1.33D-01
 IDIUse=3 WtCom= 6.88D-01 WtEn= 3.12D-01
 Coeff-Com:  0.100D+01
 Coeff-En:   0.100D+01
 Coeff:      0.100D+01
 Gap=     0.245 Goal=   None    Shift=    0.000
 GapD=    0.245 DampG=1.000 DampE=0.500 DampFc=0.5000 IDamp=-1.
 Damping current iteration by 5.00D-01
 RMSDP=1.09D-02 MaxDP=1.32D-01              OVMax= 1.85D-01

 Cycle   2  Pass 1  IDiag  1:
 RMSU=  5.43D-03    CP:  9.75D-01
 E= -232.170692903499     Delta-E=       -0.066729900024 Rises=F Damp=T
 DIIS: error= 8.61D-03 at cycle   2 NSaved=   2.
 NSaved= 2 IEnMin= 2 EnMin= -232.170692903499     IErMin= 2 ErrMin= 8.61D-03
 ErrMax= 8.61D-03  0.00D+00 EMaxC= 1.00D-01 BMatC= 7.65D-03 BMatP= 1.33D-01
 IDIUse=3 WtCom= 9.14D-01 WtEn= 8.61D-02
 Coeff-Com:  0.550D-01 0.945D+00
 Coeff-En:   0.119D+00 0.881D+00
 Coeff:      0.605D-01 0.939D+00
 Gap=     0.270 Goal=   None    Shift=    0.000
 RMSDP=3.74D-03 MaxDP=8.05D-02 DE=-6.67D-02 OVMax= 1.04D-01

 Cycle   3  Pass 1  IDiag  1:
 RMSU=  2.60D-03    CP:  9.50D-01  5.20D-01
 E= -232.257565770463     Delta-E=       -0.086872866964 Rises=F Damp=F
 DIIS: error= 4.55D-03 at cycle   3 NSaved=   3.
 NSaved= 3 IEnMin= 3 EnMin= -232.257565770463     IErMin= 3 ErrMin= 4.55D-03
 ErrMax= 4.55D-03  0.00D+00 EMaxC= 1.00D-01 BMatC= 1.38D-03 BMatP= 7.65D-03
 IDIUse=3 WtCom= 9.55D-01 WtEn= 4.55D-02
 Coeff-Com: -0.377D-01 0.249D+00 0.788D+00
 Coeff-En:   0.000D+00 0.000D+00 0.100D+01
 Coeff:     -0.360D-01 0.238D+00 0.798D+00
 Gap=     0.243 Goal=   None    Shift=    0.000
 RMSDP=1.19D-03 MaxDP=1.96D-02 DE=-8.69D-02 OVMax= 8.90D-03

 Cycle   4  Pass 1  IDiag  1:
 RMSU=  8.08D-04    CP:  9.57D-01  6.33D-01  7.71D-01
 E= -232.258858567200     Delta-E=       -0.001292796737 Rises=F Damp=F
 DIIS: error= 6.10D-04 at cycle   4 NSaved=   4.
 NSaved= 4 IEnMin= 4 EnMin= -232.258858567200     IErMin= 4 ErrMin= 6.10D-04
 ErrMax= 6.10D-04  0.00D+00 EMaxC= 1.00D-01 BMatC= 3.28D-05 BMatP= 1.38D-03
 IDIUse=3 WtCom= 9.94D-01 WtEn= 6.10D-03
 Coeff-Com: -0.122D-01 0.226D-01 0.175D+00 0.815D+00
 Coeff-En:   0.000D+00 0.000D+00 0.000D+00 0.100D+01
 Coeff:     -0.121D-01 0.225D-01 0.174D+00 0.816D+00
 Gap=     0.243 Goal=   None    Shift=    0.000
 RMSDP=1.82D-04 MaxDP=3.11D-03 DE=-1.29D-03 OVMax= 1.14D-03

 Cycle   5  Pass 1  IDiag  1:
 RMSU=  4.95D-05    CP:  9.56D-01  6.26D-01  8.13D-01  8.49D-01
 E= -232.258890182576     Delta-E=       -0.000031615376 Rises=F Damp=F
 DIIS: error= 2.01D-05 at cycle   5 NSaved=   5.
 NSaved= 5 IEnMin= 5 EnMin= -232.258890182576     IErMin= 5 ErrMin= 2.01D-05
 ErrMax= 2.01D-05  0.00D+00 EMaxC= 1.00D-01 BMatC= 7.01D-08 BMatP= 3.28D-05
 IDIUse=1 WtCom= 1.00D+00 WtEn= 0.00D+00
 Coeff-Com: -0.863D-03 0.563D-03 0.912D-02 0.706D-01 0.921D+00
 Coeff:     -0.863D-03 0.563D-03 0.912D-02 0.706D-01 0.921D+00
 Gap=     0.243 Goal=   None    Shift=    0.000
 RMSDP=1.39D-05 MaxDP=2.49D-04 DE=-3.16D-05 OVMax= 1.23D-04

 Cycle   6  Pass 1  IDiag  1:
 RMSU=  7.14D-06    CP:  9.56D-01  6.25D-01  8.16D-01  8.42D-01  1.10D+00
 E= -232.258890207475     Delta-E=       -0.000000024899 Rises=F Damp=F
 DIIS: error= 2.53D-05 at cycle   6 NSaved=   6.
 NSaved= 6 IEnMin= 6 EnMin= -232.258890207475     IErMin= 5 ErrMin= 2.01D-05
 ErrMax= 2.53D-05  0.00D+00 EMaxC= 1.00D-01 BMatC= 4.17D-08 BMatP= 7.01D-08
 IDIUse=1 WtCom= 1.00D+00 WtEn= 0.00D+00
 Coeff-Com: -0.232D-03-0.128D-03 0.128D-02 0.219D-01 0.489D+00 0.488D+00
 Coeff:     -0.232D-03-0.128D-03 0.128D-02 0.219D-01 0.489D+00 0.488D+00
 Gap=     0.243 Goal=   None    Shift=    0.000
 RMSDP=2.07D-06 MaxDP=3.91D-05 DE=-2.49D-08 OVMax= 7.86D-05

 Cycle   7  Pass 1  IDiag  1:
 RMSU=  1.88D-06    CP:  9.56D-01  6.25D-01  8.16D-01  8.41D-01  1.11D+00
                    CP:  9.07D-01
 E= -232.258890246476     Delta-E=       -0.000000039001 Rises=F Damp=F
 DIIS: error= 4.31D-06 at cycle   7 NSaved=   7.
 NSaved= 7 IEnMin= 7 EnMin= -232.258890246476     IErMin= 7 ErrMin= 4.31D-06
 ErrMax= 4.31D-06  0.00D+00 EMaxC= 1.00D-01 BMatC= 1.33D-09 BMatP= 4.17D-08
 IDIUse=1 WtCom= 1.00D+00 WtEn= 0.00D+00
 Coeff-Com:  0.250D-04-0.495D-04-0.743D-03-0.236D-02-0.290D-02 0.145D+00
 Coeff-Com:  0.861D+00
 Coeff:      0.250D-04-0.495D-04-0.743D-03-0.236D-02-0.290D-02 0.145D+00
 Coeff:      0.861D+00
 Gap=     0.243 Goal=   None    Shift=    0.000
 RMSDP=3.84D-07 MaxDP=5.52D-06 DE=-3.90D-08 OVMax= 1.15D-05

 Cycle   8  Pass 1  IDiag  1:
 RMSU=  1.09D-07    CP:  9.56D-01  6.25D-01  8.16D-01  8.42D-01  1.12D+00
                    CP:  9.37D-01  8.84D-01
 E= -232.258890247787     Delta-E=       -0.000000001311 Rises=F Damp=F
 DIIS: error= 8.90D-08 at cycle   8 NSaved=   8.
 NSaved= 8 IEnMin= 8 EnMin= -232.258890247787     IErMin= 8 ErrMin= 8.90D-08
 ErrMax= 8.90D-08  0.00D+00 EMaxC= 1.00D-01 BMatC= 6.19D-13 BMatP= 1.33D-09
 IDIUse=1 WtCom= 1.00D+00 WtEn= 0.00D+00
 Coeff-Com: -0.542D-06 0.800D-06-0.207D-04-0.905D-04-0.116D-02 0.101D-02
 Coeff-Com:  0.131D-01 0.987D+00
 Coeff:     -0.542D-06 0.800D-06-0.207D-04-0.905D-04-0.116D-02 0.101D-02
 Coeff:      0.131D-01 0.987D+00
 Gap=     0.243 Goal=   None    Shift=    0.000
 RMSDP=2.70D-08 MaxDP=3.33D-07 DE=-1.31D-09 OVMax= 3.09D-07

 Cycle   9  Pass 1  IDiag  1:
 RMSU=  4.94D-09    CP:  9.56D-01  6.25D-01  8.16D-01  8.41D-01  1.12D+00
                    CP:  9.39D-01  8.87D-01  9.94D-01
 E= -232.258890247799     Delta-E=       -0.000000000012 Rises=F Damp=F
 DIIS: error= 3.43D-09 at cycle   9 NSaved=   9.
 NSaved= 9 IEnMin= 9 EnMin= -232.258890247799     IErMin= 9 ErrMin= 3.43D-09
 ErrMax= 3.43D-09  0.00D+00 EMaxC= 1.00D-01 BMatC= 7.78D-16 BMatP= 6.19D-13
 IDIUse=1 WtCom= 1.00D+00 WtEn= 0.00D+00
 Coeff-Com: -0.986D-07 0.300D-06 0.413D-05 0.995D-05 0.900D-05-0.708D-03
 Coeff-Com: -0.425D-02-0.254D-01 0.103D+01
 Coeff:     -0.986D-07 0.300D-06 0.413D-05 0.995D-05 0.900D-05-0.708D-03
 Coeff:     -0.425D-02-0.254D-01 0.103D+01
 Gap=     0.243 Goal=   None    Shift=    0.000
 RMSDP=1.41D-09 MaxDP=1.87D-08 DE=-1.20D-11 OVMax= 2.42D-08

 SCF Done:  E(RB3LYP) =  -232.258890248     A.U. after    9 cycles
            NFock=  9  Conv=0.14D-08     -V/T= 2.0101
 KE= 2.299251785379D+02 PE=-9.433765788603D+02 EE= 2.779781164119D+02
 Leave Link  502 at Sat Jul 13 01:00:32 2024, MaxMem=  2684354560 cpu:               8.0 elap:               7.5
 (Enter D:\study\G16W\l801.exe)
 DoSCS=F DFT=T ScalE2(SS,OS)=  1.000000  1.000000
 Range of M.O.s used for correlation:     1   126
 NBasis=   126 NAE=    21 NBE=    21 NFC=     0 NFV=     0
 NROrb=    126 NOA=    21 NOB=    21 NVA=   105 NVB=   105

 **** Warning!!: The largest alpha MO coefficient is  0.10210998D+03

 Leave Link  801 at Sat Jul 13 01:00:32 2024, MaxMem=  2684354560 cpu:               0.0 elap:               0.1
 (Enter D:\study\G16W\l1002.exe)
 Minotr:  Closed shell wavefunction.
          Direct CPHF calculation.
          Differentiating once with respect to magnetic field using GIAOs.
          Electric field/nuclear overlap derivatives assumed to be zero.
          Requested convergence is 1.0D-08 RMS, and 1.0D-07 maximum.
          Secondary convergence is 1.0D-12 RMS, and 1.0D-12 maximum.
          NewPWx=T KeepS1=F KeepF1=F KeepIn=T MapXYZ=F SortEE=F KeepMc=T.
         5049 words used for storage of precomputed grid.
 Two-electron integral symmetry not used.
          MDV=    2684354560 using IRadAn=       1.
          Solving linear equations simultaneously, MaxMat=      72.
 FoFCou: FMM=F IPFlag=           0 FMFlag=      100000 FMFlg1=        2001
         NFxFlg=           0 DoJE=F BraDBF=F KetDBF=T FulRan=T
         wScrn=  0.000000 ICntrl=      6100 IOpCl=  0 I1Cent=           7 NGrid=         212
         NMat0=    1 NMatS0=      1 NMatT0=    0 NMatD0=    1 NMtDS0=    0 NMtDT0=    0
 Symmetry not used in FoFCou.
 FoFJK:  IHMeth= 1 ICntrl=    6127 DoSepK=F KAlg= 0 I1Cent=           0 FoldK=F
 IRaf=         1 NMat=       1 IRICut=       1 DoRegI=T DoRafI=F ISym2E= 0 IDoP0=0 IntGTp=1.
          There are     3 degrees of freedom in the 1st order CPHF.  IDoFFX=0 NUNeed=     3.
      3 vectors produced by pass  0 Test12= 7.35D-14 3.33D-08 XBig12= 6.30D+00 8.61D-01.
 AX will form     3 AO Fock derivatives at one time.
      3 vectors produced by pass  1 Test12= 7.35D-14 3.33D-08 XBig12= 5.41D-03 3.70D-02.
      3 vectors produced by pass  2 Test12= 7.35D-14 3.33D-08 XBig12= 4.19D-06 6.56D-04.
      3 vectors produced by pass  3 Test12= 7.35D-14 3.33D-08 XBig12= 4.79D-09 2.81D-05.
      3 vectors produced by pass  4 Test12= 7.35D-14 3.33D-08 XBig12= 1.06D-11 1.13D-06.
 InvSVY:  IOpt=1 It=  1 EMax= 2.22D-16
 Solved reduced A of dimension    15 with     3 vectors.
 Calculating GIAO nuclear magnetic shielding tensors.
 SCF GIAO Magnetic shielding tensor (ppm):
      1  C    Isotropic =    67.9756   Anisotropy =   166.5679
   XX=    57.0143   YX=     0.0000   ZX=     0.0000
   XY=     0.0000   YY=   -32.1084   ZY=     0.0000
   XZ=     0.0000   YZ=     0.0000   ZZ=   179.0208
   Eigenvalues:   -32.1084    57.0143   179.0208
      2  C    Isotropic =    67.9282   Anisotropy =   166.4198
   XX=    -9.7984   YX=   -38.6881   ZX=     0.0000
   XY=   -38.5982   YY=    34.7084   ZY=     0.0000
   XZ=     0.0000   YZ=     0.0000   ZZ=   178.8748
   Eigenvalues:   -32.1377    57.0476   178.8748
      3  C    Isotropic =    67.9282   Anisotropy =   166.4198
   XX=    -9.7984   YX=    38.6881   ZX=     0.0000
   XY=    38.5982   YY=    34.7084   ZY=     0.0000
   XZ=     0.0000   YZ=     0.0000   ZZ=   178.8748
   Eigenvalues:   -32.1377    57.0476   178.8748
      4  C    Isotropic =    67.9756   Anisotropy =   166.5679
   XX=    57.0143   YX=     0.0000   ZX=     0.0000
   XY=     0.0000   YY=   -32.1084   ZY=     0.0000
   XZ=     0.0000   YZ=     0.0000   ZZ=   179.0208
   Eigenvalues:   -32.1084    57.0143   179.0208
      5  C    Isotropic =    67.9282   Anisotropy =   166.4198
   XX=    -9.7984   YX=   -38.6881   ZX=     0.0000
   XY=   -38.5982   YY=    34.7084   ZY=     0.0000
   XZ=     0.0000   YZ=     0.0000   ZZ=   178.8748
   Eigenvalues:   -32.1377    57.0476   178.8748
      6  C    Isotropic =    67.9282   Anisotropy =   166.4198
   XX=    -9.7984   YX=    38.6881   ZX=     0.0000
   XY=    38.5982   YY=    34.7084   ZY=     0.0000
   XZ=     0.0000   YZ=     0.0000   ZZ=   178.8748
   Eigenvalues:   -32.1377    57.0476   178.8748
      7  H    Isotropic =    24.8015   Anisotropy =     4.7477
   XX=    27.9667   YX=     0.0000   ZX=     0.0000
   XY=     0.0000   YY=    24.6900   ZY=     0.0000
   XZ=     0.0000   YZ=     0.0000   ZZ=    21.7479
   Eigenvalues:    21.7479    24.6900    27.9667
      8  H    Isotropic =    24.7798   Anisotropy =     4.7287
   XX=    25.5286   YX=    -1.3940   ZX=     0.0000
   XY=    -1.4098   YY=    27.1146   ZY=     0.0000
   XZ=     0.0000   YZ=     0.0000   ZZ=    21.6961
   Eigenvalues:    21.6961    24.7110    27.9323
      9  H    Isotropic =    24.7798   Anisotropy =     4.7287
   XX=    25.5286   YX=     1.3940   ZX=     0.0000
   XY=     1.4098   YY=    27.1146   ZY=     0.0000
   XZ=     0.0000   YZ=     0.0000   ZZ=    21.6961
   Eigenvalues:    21.6961    24.7110    27.9323
     10  H    Isotropic =    24.8015   Anisotropy =     4.7477
   XX=    27.9667   YX=     0.0000   ZX=     0.0000
   XY=     0.0000   YY=    24.6900   ZY=     0.0000
   XZ=     0.0000   YZ=     0.0000   ZZ=    21.7479
   Eigenvalues:    21.7479    24.6900    27.9667
     11  H    Isotropic =    24.7798   Anisotropy =     4.7287
   XX=    25.5286   YX=    -1.3940   ZX=     0.0000
   XY=    -1.4098   YY=    27.1146   ZY=     0.0000
   XZ=     0.0000   YZ=     0.0000   ZZ=    21.6961
   Eigenvalues:    21.6961    24.7110    27.9323
     12  H    Isotropic =    24.7798   Anisotropy =     4.7287
   XX=    25.5286   YX=     1.3940   ZX=     0.0000
   XY=     1.4098   YY=    27.1146   ZY=     0.0000
   XZ=     0.0000   YZ=     0.0000   ZZ=    21.6961
   Eigenvalues:    21.6961    24.7110    27.9323
     13  Bq   Isotropic =     8.0122   Anisotropy =     7.7790
[...]
   XZ=     0.0000   YZ=     0.0000   ZZ=     0.3290
   Eigenvalues:    -0.0630    -0.0628     0.3290
    209  Bq   Isotropic =     0.0667   Anisotropy =     0.3861
   XX=    -0.0621   YX=     0.0000   ZX=     0.0000
   XY=     0.0000   YY=    -0.0619   ZY=     0.0000
   XZ=     0.0000   YZ=     0.0000   ZZ=     0.3241
   Eigenvalues:    -0.0621    -0.0619     0.3241
    210  Bq   Isotropic =     0.0657   Anisotropy =     0.3804
   XX=    -0.0612   YX=     0.0000   ZX=     0.0000
   XY=     0.0000   YY=    -0.0610   ZY=     0.0000
   XZ=     0.0000   YZ=     0.0000   ZZ=     0.3193
   Eigenvalues:    -0.0612    -0.0610     0.3193
    211  Bq   Isotropic =     0.0647   Anisotropy =     0.3749
   XX=    -0.0603   YX=     0.0000   ZX=     0.0000
   XY=     0.0000   YY=    -0.0601   ZY=     0.0000
   XZ=     0.0000   YZ=     0.0000   ZZ=     0.3146
   Eigenvalues:    -0.0603    -0.0601     0.3146
    212  Bq   Isotropic =     0.0638   Anisotropy =     0.3694
   XX=    -0.0595   YX=     0.0000   ZX=     0.0000
   XY=     0.0000   YY=    -0.0593   ZY=     0.0000
   XZ=     0.0000   YZ=     0.0000   ZZ=     0.3100
   Eigenvalues:    -0.0595    -0.0593     0.3100
 End of Minotr F.D. properties file   721 does not exist.
 End of Minotr F.D. properties file   722 does not exist.
 End of Minotr F.D. properties file   788 does not exist.
 Leave Link 1002 at Sat Jul 13 01:00:36 2024, MaxMem=  2684354560 cpu:               4.0 elap:               3.5
 (Enter D:\study\G16W\l601.exe)
 Copying SCF densities to generalized density rwf, IOpCl= 0 IROHF=0.
 Hyperfine terms turned off by default for NAtoms > 100.

 **********************************************************************

            Population analysis using the SCF Density.

 **********************************************************************

 Alpha  occ. eigenvalues --  -10.19811 -10.19787 -10.19781 -10.19730 -10.19724
 Alpha  occ. eigenvalues --  -10.19700  -0.85775  -0.75037  -0.75027  -0.60728
 Alpha  occ. eigenvalues --   -0.60697  -0.52790  -0.46719  -0.44907  -0.42691
 Alpha  occ. eigenvalues --   -0.42659  -0.36995  -0.34988  -0.34932  -0.25734
 Alpha  occ. eigenvalues --   -0.25730
 Alpha virt. eigenvalues --   -0.01405  -0.01385   0.00886   0.02620   0.02622
 Alpha virt. eigenvalues --    0.04606   0.04608   0.06674   0.07818   0.07946
 Alpha virt. eigenvalues --    0.09224   0.09224   0.09983   0.12748   0.14282
 Alpha virt. eigenvalues --    0.14285   0.14496   0.14498   0.15527   0.15528
 Alpha virt. eigenvalues --    0.19599   0.19699   0.19711   0.20567   0.21176
 Alpha virt. eigenvalues --    0.21177   0.23538   0.24354   0.24389   0.26646
 Alpha virt. eigenvalues --    0.27978   0.28002   0.32530   0.34871   0.34906
 Alpha virt. eigenvalues --    0.34979   0.34980   0.56764   0.57475   0.60395
 Alpha virt. eigenvalues --    0.62115   0.65901   0.71709   0.71714   0.72153
 Alpha virt. eigenvalues --    0.72172   0.74681   0.74683   0.76924   0.76939
 Alpha virt. eigenvalues --    0.80367   0.82807   0.89602   0.93058   0.93125
 Alpha virt. eigenvalues --    0.96298   0.96377   0.97682   1.03165   1.07413
 Alpha virt. eigenvalues --    1.07439   1.13731   1.13778   1.17016   1.17042
 Alpha virt. eigenvalues --    1.25090   1.31024   1.39064   1.43559   1.43564
 Alpha virt. eigenvalues --    1.47859   1.47909   1.50516   1.50553   1.74927
 Alpha virt. eigenvalues --    1.81786   1.88427   1.90630   1.98747   1.98842
 Alpha virt. eigenvalues --    2.10713   2.10717   2.15164   2.15176   2.16455
 Alpha virt. eigenvalues --    2.16512   2.30247   2.30366   2.32277   2.57245
 Alpha virt. eigenvalues --    2.57261   2.64680   2.70418   2.70421   2.73301
 Alpha virt. eigenvalues --    2.73364   2.82659   3.02051   3.40124   4.22428
 Alpha virt. eigenvalues --    4.23831   4.23838   4.37610   4.37622   4.67821
          Condensed to atoms (all electrons):
 Mulliken charges:
               1
     1  C   -0.179493
     2  C   -0.176935
     3  C   -0.176935
     4  C   -0.179493
     5  C   -0.176935
     6  C   -0.176935
     7  H    0.177836
     8  H    0.177764
     9  H    0.177764
    10  H    0.177836
    11  H    0.177764
    12  H    0.177764
    13  Bq   0.000000
    14  Bq   0.000000
    15  Bq   0.000000
    16  Bq   0.000000
    17  Bq   0.000000
    18  Bq   0.000000
    19  Bq   0.000000
    20  Bq   0.000000
    21  Bq   0.000000
    22  Bq   0.000000
    23  Bq   0.000000
    24  Bq   0.000000
    25  Bq   0.000000
    26  Bq   0.000000
    27  Bq   0.000000
    28  Bq   0.000000
    29  Bq   0.000000
    30  Bq   0.000000
    31  Bq   0.000000
    32  Bq   0.000000
    33  Bq   0.000000
    34  Bq   0.000000
    35  Bq   0.000000
    36  Bq   0.000000
    37  Bq   0.000000
    38  Bq   0.000000
    39  Bq   0.000000
    40  Bq   0.000000
    41  Bq   0.000000
    42  Bq   0.000000
    43  Bq   0.000000
    44  Bq   0.000000
    45  Bq   0.000000
    46  Bq   0.000000
    47  Bq   0.000000
    48  Bq   0.000000
    49  Bq   0.000000
    50  Bq   0.000000
    51  Bq   0.000000
    52  Bq   0.000000
    53  Bq   0.000000
    54  Bq   0.000000
    55  Bq   0.000000
    56  Bq   0.000000
    57  Bq   0.000000
    58  Bq   0.000000
    59  Bq   0.000000
    60  Bq   0.000000
    61  Bq   0.000000
    62  Bq   0.000000
    63  Bq   0.000000
    64  Bq   0.000000
    65  Bq   0.000000
    66  Bq   0.000000
    67  Bq   0.000000
    68  Bq   0.000000
    69  Bq   0.000000
    70  Bq   0.000000
    71  Bq   0.000000
    72  Bq   0.000000
    73  Bq   0.000000
    74  Bq   0.000000
    75  Bq   0.000000
    76  Bq   0.000000
    77  Bq   0.000000
    78  Bq   0.000000
    79  Bq   0.000000
    80  Bq   0.000000
    81  Bq   0.000000
    82  Bq   0.000000
    83  Bq   0.000000
    84  Bq   0.000000
    85  Bq   0.000000
    86  Bq   0.000000
    87  Bq   0.000000
    88  Bq   0.000000
    89  Bq   0.000000
    90  Bq   0.000000
    91  Bq   0.000000
    92  Bq   0.000000
    93  Bq   0.000000
    94  Bq   0.000000
    95  Bq   0.000000
    96  Bq   0.000000
    97  Bq   0.000000
    98  Bq   0.000000
    99  Bq   0.000000
   100  Bq   0.000000
   101  Bq   0.000000
   102  Bq   0.000000
   103  Bq   0.000000
   104  Bq   0.000000
   105  Bq   0.000000
   106  Bq   0.000000
   107  Bq   0.000000
   108  Bq   0.000000
   109  Bq   0.000000
   110  Bq   0.000000
   111  Bq   0.000000
   112  Bq   0.000000
   113  Bq   0.000000
   114  Bq   0.000000
   115  Bq   0.000000
   116  Bq   0.000000
   117  Bq   0.000000
   118  Bq   0.000000
   119  Bq   0.000000
   120  Bq   0.000000
   121  Bq   0.000000
   122  Bq   0.000000
   123  Bq   0.000000
   124  Bq   0.000000
   125  Bq   0.000000
   126  Bq   0.000000
   127  Bq   0.000000
   128  Bq   0.000000
   129  Bq   0.000000
   130  Bq   0.000000
   131  Bq   0.000000
   132  Bq   0.000000
   133  Bq   0.000000
   134  Bq   0.000000
   135  Bq   0.000000
   136  Bq   0.000000
   137  Bq   0.000000
   138  Bq   0.000000
   139  Bq   0.000000
   140  Bq   0.000000
   141  Bq   0.000000
   142  Bq   0.000000
   143  Bq   0.000000
   144  Bq   0.000000
   145  Bq   0.000000
   146  Bq   0.000000
   147  Bq   0.000000
   148  Bq   0.000000
   149  Bq   0.000000
   150  Bq   0.000000
   151  Bq   0.000000
   152  Bq   0.000000
   153  Bq   0.000000
   154  Bq   0.000000
   155  Bq   0.000000
   156  Bq   0.000000
   157  Bq   0.000000
   158  Bq   0.000000
   159  Bq   0.000000
   160  Bq   0.000000
   161  Bq   0.000000
   162  Bq   0.000000
   163  Bq   0.000000
   164  Bq   0.000000
   165  Bq   0.000000
   166  Bq   0.000000
   167  Bq   0.000000
   168  Bq   0.000000
   169  Bq   0.000000
   170  Bq   0.000000
   171  Bq   0.000000
   172  Bq   0.000000
   173  Bq   0.000000
   174  Bq   0.000000
   175  Bq   0.000000
   176  Bq   0.000000
   177  Bq   0.000000
   178  Bq   0.000000
   179  Bq   0.000000
   180  Bq   0.000000
   181  Bq   0.000000
   182  Bq   0.000000
   183  Bq   0.000000
   184  Bq   0.000000
   185  Bq   0.000000
   186  Bq   0.000000
   187  Bq   0.000000
   188  Bq   0.000000
   189  Bq   0.000000
   190  Bq   0.000000
   191  Bq   0.000000
   192  Bq   0.000000
   193  Bq   0.000000
   194  Bq   0.000000
   195  Bq   0.000000
   196  Bq   0.000000
   197  Bq   0.000000
   198  Bq   0.000000
   199  Bq   0.000000
   200  Bq   0.000000
   201  Bq   0.000000
   202  Bq   0.000000
   203  Bq   0.000000
   204  Bq   0.000000
   205  Bq   0.000000
   206  Bq   0.000000
   207  Bq   0.000000
   208  Bq   0.000000
   209  Bq   0.000000
   210  Bq   0.000000
   211  Bq   0.000000
   212  Bq   0.000000
 Sum of Mulliken charges =   0.00000
 Mulliken charges with hydrogens summed into heavy atoms:
               1
     1  C   -0.001657
     2  C    0.000829
     3  C    0.000829
     4  C   -0.001657
     5  C    0.000829
     6  C    0.000829
    13  Bq   0.000000
    14  Bq   0.000000
    15  Bq   0.000000
    16  Bq   0.000000
    17  Bq   0.000000
    18  Bq   0.000000
    19  Bq   0.000000
    20  Bq   0.000000
    21  Bq   0.000000
    22  Bq   0.000000
    23  Bq   0.000000
    24  Bq   0.000000
    25  Bq   0.000000
    26  Bq   0.000000
    27  Bq   0.000000
    28  Bq   0.000000
    29  Bq   0.000000
    30  Bq   0.000000
    31  Bq   0.000000
    32  Bq   0.000000
    33  Bq   0.000000
    34  Bq   0.000000
    35  Bq   0.000000
    36  Bq   0.000000
    37  Bq   0.000000
    38  Bq   0.000000
    39  Bq   0.000000
    40  Bq   0.000000
    41  Bq   0.000000
    42  Bq   0.000000
    43  Bq   0.000000
    44  Bq   0.000000
    45  Bq   0.000000
    46  Bq   0.000000
    47  Bq   0.000000
    48  Bq   0.000000
    49  Bq   0.000000
    50  Bq   0.000000
    51  Bq   0.000000
    52  Bq   0.000000
    53  Bq   0.000000
    54  Bq   0.000000
    55  Bq   0.000000
    56  Bq   0.000000
    57  Bq   0.000000
    58  Bq   0.000000
    59  Bq   0.000000
    60  Bq   0.000000
    61  Bq   0.000000
    62  Bq   0.000000
    63  Bq   0.000000
    64  Bq   0.000000
    65  Bq   0.000000
    66  Bq   0.000000
    67  Bq   0.000000
    68  Bq   0.000000
    69  Bq   0.000000
    70  Bq   0.000000
    71  Bq   0.000000
    72  Bq   0.000000
    73  Bq   0.000000
    74  Bq   0.000000
    75  Bq   0.000000
    76  Bq   0.000000
    77  Bq   0.000000
    78  Bq   0.000000
    79  Bq   0.000000
    80  Bq   0.000000
    81  Bq   0.000000
    82  Bq   0.000000
    83  Bq   0.000000
    84  Bq   0.000000
    85  Bq   0.000000
    86  Bq   0.000000
    87  Bq   0.000000
    88  Bq   0.000000
    89  Bq   0.000000
    90  Bq   0.000000
    91  Bq   0.000000
    92  Bq   0.000000
    93  Bq   0.000000
    94  Bq   0.000000
    95  Bq   0.000000
    96  Bq   0.000000
    97  Bq   0.000000
    98  Bq   0.000000
    99  Bq   0.000000
   100  Bq   0.000000
   101  Bq   0.000000
   102  Bq   0.000000
   103  Bq   0.000000
   104  Bq   0.000000
   105  Bq   0.000000
   106  Bq   0.000000
   107  Bq   0.000000
   108  Bq   0.000000
   109  Bq   0.000000
   110  Bq   0.000000
   111  Bq   0.000000
   112  Bq   0.000000
   113  Bq   0.000000
   114  Bq   0.000000
   115  Bq   0.000000
   116  Bq   0.000000
   117  Bq   0.000000
   118  Bq   0.000000
   119  Bq   0.000000
   120  Bq   0.000000
   121  Bq   0.000000
   122  Bq   0.000000
   123  Bq   0.000000
   124  Bq   0.000000
   125  Bq   0.000000
   126  Bq   0.000000
   127  Bq   0.000000
   128  Bq   0.000000
   129  Bq   0.000000
   130  Bq   0.000000
   131  Bq   0.000000
   132  Bq   0.000000
   133  Bq   0.000000
   134  Bq   0.000000
   135  Bq   0.000000
   136  Bq   0.000000
   137  Bq   0.000000
   138  Bq   0.000000
   139  Bq   0.000000
   140  Bq   0.000000
   141  Bq   0.000000
   142  Bq   0.000000
   143  Bq   0.000000
   144  Bq   0.000000
   145  Bq   0.000000
   146  Bq   0.000000
   147  Bq   0.000000
   148  Bq   0.000000
   149  Bq   0.000000
   150  Bq   0.000000
   151  Bq   0.000000
   152  Bq   0.000000
   153  Bq   0.000000
   154  Bq   0.000000
   155  Bq   0.000000
   156  Bq   0.000000
   157  Bq   0.000000
   158  Bq   0.000000
   159  Bq   0.000000
   160  Bq   0.000000
   161  Bq   0.000000
   162  Bq   0.000000
   163  Bq   0.000000
   164  Bq   0.000000
   165  Bq   0.000000
   166  Bq   0.000000
   167  Bq   0.000000
   168  Bq   0.000000
   169  Bq   0.000000
   170  Bq   0.000000
   171  Bq   0.000000
   172  Bq   0.000000
   173  Bq   0.000000
   174  Bq   0.000000
   175  Bq   0.000000
   176  Bq   0.000000
   177  Bq   0.000000
   178  Bq   0.000000
   179  Bq   0.000000
   180  Bq   0.000000
   181  Bq   0.000000
   182  Bq   0.000000
   183  Bq   0.000000
   184  Bq   0.000000
   185  Bq   0.000000
   186  Bq   0.000000
   187  Bq   0.000000
   188  Bq   0.000000
   189  Bq   0.000000
   190  Bq   0.000000
   191  Bq   0.000000
   192  Bq   0.000000
   193  Bq   0.000000
   194  Bq   0.000000
   195  Bq   0.000000
   196  Bq   0.000000
   197  Bq   0.000000
   198  Bq   0.000000
   199  Bq   0.000000
   200  Bq   0.000000
   201  Bq   0.000000
   202  Bq   0.000000
   203  Bq   0.000000
   204  Bq   0.000000
   205  Bq   0.000000
   206  Bq   0.000000
   207  Bq   0.000000
   208  Bq   0.000000
   209  Bq   0.000000
   210  Bq   0.000000
   211  Bq   0.000000
   212  Bq   0.000000
 Electronic spatial extent (au):  <R**2>=            460.7474
 Charge=              0.0000 electrons
 Dipole moment (field-independent basis, Debye):
    X=              0.0000    Y=              0.0000    Z=              0.0000  Tot=              0.0000
 Quadrupole moment (field-independent basis, Debye-Ang):
   XX=            -32.2217   YY=            -32.1976   ZZ=            -40.3954
   XY=              0.0000   XZ=              0.0000   YZ=              0.0000
 Traceless Quadrupole moment (field-independent basis, Debye-Ang):
   XX=              2.7165   YY=              2.7406   ZZ=             -5.4571
   XY=              0.0000   XZ=              0.0000   YZ=              0.0000
 Octapole moment (field-independent basis, Debye-Ang**2):
  XXX=              0.0000  YYY=              0.0000  ZZZ=              0.0000  XYY=              0.0000
  XXY=              0.0000  XXZ=              0.0000  XZZ=              0.0000  YZZ=              0.0000
  YYZ=              0.0000  XYZ=              0.0000
 Hexadecapole moment (field-independent basis, Debye-Ang**3):
 XXXX=           -280.3144 YYYY=           -280.1668 ZZZZ=            -52.1204 XXXY=              0.0000
 XXXZ=              0.0000 YYYX=              0.0000 YYYZ=              0.0000 ZZZX=              0.0000
 ZZZY=              0.0000 XXYY=            -93.4229 XXZZ=            -66.2162 YYZZ=            -66.2113
 XXYZ=              0.0000 YYXZ=              0.0000 ZZXY=              0.0000
 N-N= 2.032143936627D+02 E-N=-9.433765789581D+02  KE= 2.299251785379D+02
 Leave Link  601 at Sat Jul 13 01:00:36 2024, MaxMem=  2684354560 cpu:               0.0 elap:               0.2
 (Enter D:\study\G16W\l9999.exe)
 1|1|UNPC-ROG|SP|RB3LYP|6-31+G(d)|C6H6|SOBEREVA|13-Jul-2024|0||#p b3lyp
 /6-31+G* NMR geom=connectivity||template file||0,1|C,0,0.,1.397,0.|C,0
 ,1.209,0.698,0.|C,0,1.209,-0.698,0.|C,0,0.,-1.397,0.|C,0,-1.209,-0.698
 ,0.|C,0,-1.209,0.698,0.|H,0,0.,2.483,0.|H,0,2.151,1.242,0.|H,0,2.151,-
 1.242,0.|H,0,0.,-2.483,0.|H,0,-2.151,-1.242,0.|H,0,-2.151,1.242,0.|Bq,
 0,0.,0.,0.|Bq,0,0.,0.,0.050251|Bq,0,0.,0.,0.100503|Bq,0,0.,0.,0.150754
 |Bq,0,0.,0.,0.201005|Bq,0,0.,0.,0.251256|Bq,0,0.,0.,0.301508|Bq,0,0.,0
 .,0.351759|Bq,0,0.,0.,0.40201|Bq,0,0.,0.,0.452261|Bq,0,0.,0.,0.502513|
 Bq,0,0.,0.,0.552764|Bq,0,0.,0.,0.603015|Bq,0,0.,0.,0.653266|Bq,0,0.,0.
 ,0.703518|Bq,0,0.,0.,0.753769|Bq,0,0.,0.,0.80402|Bq,0,0.,0.,0.854271|B
 q,0,0.,0.,0.904523|Bq,0,0.,0.,0.954774|Bq,0,0.,0.,1.005025|Bq,0,0.,0.,
 1.055276|Bq,0,0.,0.,1.105528|Bq,0,0.,0.,1.155779|Bq,0,0.,0.,1.20603|Bq
 ,0,0.,0.,1.256281|Bq,0,0.,0.,1.306533|Bq,0,0.,0.,1.356784|Bq,0,0.,0.,1
 .407035|Bq,0,0.,0.,1.457286|Bq,0,0.,0.,1.507538|Bq,0,0.,0.,1.557789|Bq
 ,0,0.,0.,1.60804|Bq,0,0.,0.,1.658291|Bq,0,0.,0.,1.708543|Bq,0,0.,0.,1.
 758794|Bq,0,0.,0.,1.809045|Bq,0,0.,0.,1.859296|Bq,0,0.,0.,1.909548|Bq,
 0,0.,0.,1.959799|Bq,0,0.,0.,2.01005|Bq,0,0.,0.,2.060302|Bq,0,0.,0.,2.1
 10553|Bq,0,0.,0.,2.160804|Bq,0,0.,0.,2.211055|Bq,0,0.,0.,2.261307|Bq,0
 ,0.,0.,2.311558|Bq,0,0.,0.,2.361809|Bq,0,0.,0.,2.41206|Bq,0,0.,0.,2.46
 2312|Bq,0,0.,0.,2.512563|Bq,0,0.,0.,2.562814|Bq,0,0.,0.,2.613065|Bq,0,
 0.,0.,2.663317|Bq,0,0.,0.,2.713568|Bq,0,0.,0.,2.763819|Bq,0,0.,0.,2.81
 407|Bq,0,0.,0.,2.864322|Bq,0,0.,0.,2.914573|Bq,0,0.,0.,2.964824|Bq,0,0
 .,0.,3.015075|Bq,0,0.,0.,3.065327|Bq,0,0.,0.,3.115578|Bq,0,0.,0.,3.165
 829|Bq,0,0.,0.,3.21608|Bq,0,0.,0.,3.266332|Bq,0,0.,0.,3.316583|Bq,0,0.
 ,0.,3.366834|Bq,0,0.,0.,3.417085|Bq,0,0.,0.,3.467337|Bq,0,0.,0.,3.5175
 88|Bq,0,0.,0.,3.567839|Bq,0,0.,0.,3.61809|Bq,0,0.,0.,3.668342|Bq,0,0.,
 0.,3.718593|Bq,0,0.,0.,3.768844|Bq,0,0.,0.,3.819095|Bq,0,0.,0.,3.86934
 7|Bq,0,0.,0.,3.919598|Bq,0,0.,0.,3.969849|Bq,0,0.,0.,4.020101|Bq,0,0.,
 0.,4.070352|Bq,0,0.,0.,4.120603|Bq,0,0.,0.,4.170854|Bq,0,0.,0.,4.22110
 6|Bq,0,0.,0.,4.271357|Bq,0,0.,0.,4.321608|Bq,0,0.,0.,4.371859|Bq,0,0.,
 0.,4.422111|Bq,0,0.,0.,4.472362|Bq,0,0.,0.,4.522613|Bq,0,0.,0.,4.57286
 4|Bq,0,0.,0.,4.623116|Bq,0,0.,0.,4.673367|Bq,0,0.,0.,4.723618|Bq,0,0.,
 0.,4.773869|Bq,0,0.,0.,4.824121|Bq,0,0.,0.,4.874372|Bq,0,0.,0.,4.92462
 3|Bq,0,0.,0.,4.974874|Bq,0,0.,0.,5.025126|Bq,0,0.,0.,5.075377|Bq,0,0.,
 0.,5.125628|Bq,0,0.,0.,5.175879|Bq,0,0.,0.,5.226131|Bq,0,0.,0.,5.27638
 2|Bq,0,0.,0.,5.326633|Bq,0,0.,0.,5.376884|Bq,0,0.,0.,5.427136|Bq,0,0.,
 0.,5.477387|Bq,0,0.,0.,5.527638|Bq,0,0.,0.,5.577889|Bq,0,0.,0.,5.62814
 1|Bq,0,0.,0.,5.678392|Bq,0,0.,0.,5.728643|Bq,0,0.,0.,5.778894|Bq,0,0.,
 0.,5.829146|Bq,0,0.,0.,5.879397|Bq,0,0.,0.,5.929648|Bq,0,0.,0.,5.97989
 9|Bq,0,0.,0.,6.030151|Bq,0,0.,0.,6.080402|Bq,0,0.,0.,6.130653|Bq,0,0.,
 0.,6.180905|Bq,0,0.,0.,6.231156|Bq,0,0.,0.,6.281407|Bq,0,0.,0.,6.33165
 8|Bq,0,0.,0.,6.38191|Bq,0,0.,0.,6.432161|Bq,0,0.,0.,6.482412|Bq,0,0.,0
 .,6.532663|Bq,0,0.,0.,6.582915|Bq,0,0.,0.,6.633166|Bq,0,0.,0.,6.683417
 |Bq,0,0.,0.,6.733668|Bq,0,0.,0.,6.78392|Bq,0,0.,0.,6.834171|Bq,0,0.,0.
 ,6.884422|Bq,0,0.,0.,6.934673|Bq,0,0.,0.,6.984925|Bq,0,0.,0.,7.035176|
 Bq,0,0.,0.,7.085427|Bq,0,0.,0.,7.135678|Bq,0,0.,0.,7.18593|Bq,0,0.,0.,
 7.236181|Bq,0,0.,0.,7.286432|Bq,0,0.,0.,7.336683|Bq,0,0.,0.,7.386935|B
 q,0,0.,0.,7.437186|Bq,0,0.,0.,7.487437|Bq,0,0.,0.,7.537688|Bq,0,0.,0.,
 7.58794|Bq,0,0.,0.,7.638191|Bq,0,0.,0.,7.688442|Bq,0,0.,0.,7.738693|Bq
 ,0,0.,0.,7.788945|Bq,0,0.,0.,7.839196|Bq,0,0.,0.,7.889447|Bq,0,0.,0.,7
 .939698|Bq,0,0.,0.,7.98995|Bq,0,0.,0.,8.040201|Bq,0,0.,0.,8.090452|Bq,
 0,0.,0.,8.140704|Bq,0,0.,0.,8.190955|Bq,0,0.,0.,8.241206|Bq,0,0.,0.,8.
 291457|Bq,0,0.,0.,8.341709|Bq,0,0.,0.,8.39196|Bq,0,0.,0.,8.442211|Bq,0
 ,0.,0.,8.492462|Bq,0,0.,0.,8.542714|Bq,0,0.,0.,8.592965|Bq,0,0.,0.,8.6
 43216|Bq,0,0.,0.,8.693467|Bq,0,0.,0.,8.743719|Bq,0,0.,0.,8.79397|Bq,0,
 0.,0.,8.844221|Bq,0,0.,0.,8.894472|Bq,0,0.,0.,8.944724|Bq,0,0.,0.,8.99
 4975|Bq,0,0.,0.,9.045226|Bq,0,0.,0.,9.095477|Bq,0,0.,0.,9.145729|Bq,0,
 0.,0.,9.19598|Bq,0,0.,0.,9.246231|Bq,0,0.,0.,9.296482|Bq,0,0.,0.,9.346
 734|Bq,0,0.,0.,9.396985|Bq,0,0.,0.,9.447236|Bq,0,0.,0.,9.497487|Bq,0,0
 .,0.,9.547739|Bq,0,0.,0.,9.59799|Bq,0,0.,0.,9.648241|Bq,0,0.,0.,9.6984
 92|Bq,0,0.,0.,9.748744|Bq,0,0.,0.,9.798995|Bq,0,0.,0.,9.849246|Bq,0,0.
 ,0.,9.899497|Bq,0,0.,0.,9.949749|Bq,0,0.,0.,10.||Version=EM64W-G16RevB
 .01|HF=-232.2588902|RMSD=1.409e-009|Dipole=0.,0.,0.|Quadrupole=2.01964
 95,2.0376059,-4.0572555,0.,0.,0.|PG=C01 [X(C6H6)]||@


 EVERYBODY NEEDS BEAUTY AS WELL AS BREAD, PLACES TO PLAY IN AND PRAY IN,
 WHERE NATURE MAY HEAL AND CHEER AND GIVE STRENGTH TO BODY AND SOUL ALIKE.

                                    -- JOHN MUIR
 Job cpu time:       0 days  0 hours  0 minutes 15.0 seconds.
 Elapsed time:       0 days  0 hours  0 minutes 13.9 seconds.
 File lengths (MBytes):  RWF=     15 Int=      0 D2E=      0 Chk=      3 Scr=      1
 Normal termination of Gaussian 16 at Sat Jul 13 01:00:36 2024.
